<?xml version="1.0" encoding="UTF-8"?>

<!-- generated on 2021-12-10 13:56:48 by Eclipse SUMO sumo Version 1.10.0
<configuration xmlns:xsi="http://www.w3.org/2001/XMLSchema-instance" xsi:noNamespaceSchemaLocation="http://sumo.dlr.de/xsd/sumoConfiguration.xsd">

    <input>
        <net-file value="./balance_net/low_net.net.xml"/>
        <route-files value="./balance_net/high_net_3000.rou.xml"/>
    </input>

    <output>
        <tripinfo-output value="tripinfo.xml"/>
    </output>

    <time>
        <begin value="0"/>
        <step-length value="0.1"/>
    </time>

    <processing>
        <time-to-teleport value="-1"/>
        <waiting-time-memory value="15"/>
    </processing>

    <traci_server>
        <remote-port value="61976"/>
    </traci_server>

    <gui_only>
        <quit-on-end value="true"/>
        <start value="true"/>
        <tracker-interval value="0.1"/>
    </gui_only>

</configuration>
-->

<tripinfos xmlns:xsi="http://www.w3.org/2001/XMLSchema-instance" xsi:noNamespaceSchemaLocation="http://sumo.dlr.de/xsd/tripinfo_file.xsd">
    <tripinfo id="W_E_0" depart="55.00" departLane="gneE2_2" departPos="3.10" departSpeed="10.00" departDelay="0.00" arrival="101.80" arrivalLane="-gneE0_1" arrivalPos="300.00" arrivalSpeed="14.68" duration="46.80" routeLength="628.90" waitingTime="0.00" waitingCount="0" stopTime="0.00" timeLoss="4.07" rerouteNo="0" devices="tripinfo_W_E_0" vType="standard_car" speedFactor="1.06" vaporized=""/>
    <tripinfo id="S_W_2" depart="66.00" departLane="gneE3_3" departPos="3.10" departSpeed="10.00" departDelay="0.00" arrival="174.30" arrivalLane="-gneE2_1" arrivalPos="300.00" arrivalSpeed="13.99" duration="108.30" routeLength="629.96" waitingTime="52.10" waitingCount="1" stopTime="0.00" timeLoss="63.04" rerouteNo="0" devices="tripinfo_S_W_2" vType="standard_car" speedFactor="1.01" vaporized=""/>
    <tripinfo id="S_N_1" depart="60.00" departLane="gneE3_1" departPos="3.10" departSpeed="10.00" departDelay="0.00" arrival="175.60" arrivalLane="-gneE1_0" arrivalPos="300.00" arrivalSpeed="12.99" duration="115.60" routeLength="628.90" waitingTime="58.30" waitingCount="1" stopTime="0.00" timeLoss="67.32" rerouteNo="0" devices="tripinfo_S_N_1" vType="standard_car" speedFactor="0.94" vaporized=""/>
    <tripinfo id="N_E_5" depart="116.00" departLane="gneE1_2" departPos="3.10" departSpeed="10.00" departDelay="0.00" arrival="181.40" arrivalLane="-gneE0_0" arrivalPos="300.00" arrivalSpeed="11.54" duration="65.40" routeLength="629.96" waitingTime="1.70" waitingCount="1" stopTime="0.00" timeLoss="10.32" rerouteNo="0" devices="tripinfo_N_E_5" vType="standard_car" speedFactor="0.83" vaporized=""/>
    <tripinfo id="W_S_6" depart="138.00" departLane="gneE2_0" departPos="3.10" departSpeed="10.00" departDelay="0.00" arrival="184.70" arrivalLane="-gneE3_0" arrivalPos="300.00" arrivalSpeed="14.50" duration="46.70" routeLength="605.77" waitingTime="0.00" waitingCount="0" stopTime="0.00" timeLoss="4.30" rerouteNo="0" devices="tripinfo_W_S_6" vType="standard_car" speedFactor="1.05" vaporized=""/>
    <tripinfo id="W_E_3" depart="73.00" departLane="gneE2_3" departPos="3.10" departSpeed="10.00" departDelay="0.00" arrival="186.40" arrivalLane="-gneE0_1" arrivalPos="300.00" arrivalSpeed="14.97" duration="113.40" routeLength="628.90" waitingTime="58.90" waitingCount="1" stopTime="0.00" timeLoss="71.41" rerouteNo="0" devices="tripinfo_W_E_3" vType="standard_car" speedFactor="1.08" vaporized=""/>
    <tripinfo id="W_E_4" depart="83.00" departLane="gneE2_3" departPos="3.10" departSpeed="10.00" departDelay="0.00" arrival="187.10" arrivalLane="-gneE0_1" arrivalPos="300.00" arrivalSpeed="14.31" duration="104.10" routeLength="628.90" waitingTime="48.30" waitingCount="1" stopTime="0.00" timeLoss="60.09" rerouteNo="0" devices="tripinfo_W_E_4" vType="standard_car" speedFactor="1.03" vaporized=""/>
    <tripinfo id="E_S_7" depart="138.00" departLane="gneE0_2" departPos="3.10" departSpeed="10.00" departDelay="0.00" arrival="202.60" arrivalLane="-gneE3_1" arrivalPos="300.00" arrivalSpeed="12.27" duration="64.60" routeLength="629.96" waitingTime="3.90" waitingCount="1" stopTime="0.00" timeLoss="12.95" rerouteNo="0" devices="tripinfo_E_S_7" vType="standard_car" speedFactor="0.89" vaporized=""/>
    <tripinfo id="S_W_8" depart="155.00" departLane="gneE3_1" departPos="3.10" departSpeed="10.00" departDelay="0.00" arrival="206.90" arrivalLane="-gneE2_1" arrivalPos="300.00" arrivalSpeed="13.00" duration="51.90" routeLength="629.96" waitingTime="0.00" waitingCount="0" stopTime="0.00" timeLoss="3.10" rerouteNo="0" devices="tripinfo_S_W_8" vType="standard_car" speedFactor="0.94" vaporized=""/>
    <tripinfo id="N_S_10" depart="159.00" departLane="gneE1_3" departPos="3.10" departSpeed="10.00" departDelay="0.00" arrival="209.40" arrivalLane="-gneE3_1" arrivalPos="300.00" arrivalSpeed="14.96" duration="50.40" routeLength="628.90" waitingTime="0.00" waitingCount="0" stopTime="0.00" timeLoss="8.39" rerouteNo="0" devices="tripinfo_N_S_10" vType="standard_car" speedFactor="1.09" vaporized=""/>
    <tripinfo id="W_S_9" depart="157.00" departLane="gneE2_3" departPos="3.10" departSpeed="10.00" departDelay="0.00" arrival="211.80" arrivalLane="-gneE3_0" arrivalPos="300.00" arrivalSpeed="11.88" duration="54.80" routeLength="605.77" waitingTime="0.00" waitingCount="0" stopTime="0.00" timeLoss="2.99" rerouteNo="0" devices="tripinfo_W_S_9" vType="standard_car" speedFactor="0.86" vaporized=""/>
    <tripinfo id="N_S_15" depart="176.00" departLane="gneE1_3" departPos="3.10" departSpeed="10.00" departDelay="0.00" arrival="225.40" arrivalLane="-gneE3_0" arrivalPos="300.00" arrivalSpeed="12.84" duration="49.40" routeLength="628.90" waitingTime="0.00" waitingCount="0" stopTime="0.00" timeLoss="0.50" rerouteNo="0" devices="tripinfo_N_S_15" vType="standard_car" speedFactor="0.93" vaporized=""/>
    <tripinfo id="E_S_14" depart="175.00" departLane="gneE0_3" departPos="3.10" departSpeed="10.00" departDelay="0.00" arrival="240.20" arrivalLane="-gneE3_1" arrivalPos="300.00" arrivalSpeed="13.74" duration="65.20" routeLength="629.96" waitingTime="8.20" waitingCount="1" stopTime="0.00" timeLoss="19.02" rerouteNo="0" devices="tripinfo_E_S_14" vType="standard_car" speedFactor="0.99" vaporized=""/>
    <tripinfo id="E_S_20" depart="203.00" departLane="gneE0_3" departPos="3.10" departSpeed="10.00" departDelay="0.00" arrival="262.60" arrivalLane="-gneE3_2" arrivalPos="300.00" arrivalSpeed="14.13" duration="59.60" routeLength="629.96" waitingTime="3.70" waitingCount="1" stopTime="0.00" timeLoss="14.69" rerouteNo="0" devices="tripinfo_E_S_20" vType="standard_car" speedFactor="1.02" vaporized=""/>
    <tripinfo id="S_W_21" depart="209.00" departLane="gneE3_0" departPos="3.10" departSpeed="10.00" departDelay="0.00" arrival="276.20" arrivalLane="-gneE2_2" arrivalPos="300.00" arrivalSpeed="14.00" duration="67.20" routeLength="625.12" waitingTime="10.50" waitingCount="1" stopTime="0.00" timeLoss="22.08" rerouteNo="0" devices="tripinfo_S_W_21" vType="standard_car" speedFactor="1.01" vaporized=""/>
    <tripinfo id="S_N_18" depart="190.00" departLane="gneE3_2" departPos="3.10" departSpeed="10.00" departDelay="0.00" arrival="277.30" arrivalLane="-gneE1_1" arrivalPos="300.00" arrivalSpeed="12.98" duration="87.30" routeLength="628.90" waitingTime="28.20" waitingCount="1" stopTime="0.00" timeLoss="38.92" rerouteNo="0" devices="tripinfo_S_N_18" vType="standard_car" speedFactor="0.94" vaporized=""/>
    <tripinfo id="S_N_16" depart="180.00" departLane="gneE3_1" departPos="3.10" departSpeed="10.00" departDelay="0.00" arrival="278.60" arrivalLane="-gneE1_0" arrivalPos="300.00" arrivalSpeed="12.17" duration="98.60" routeLength="628.90" waitingTime="37.30" waitingCount="1" stopTime="0.00" timeLoss="46.98" rerouteNo="0" devices="tripinfo_S_N_16" vType="standard_car" speedFactor="0.88" vaporized=""/>
    <tripinfo id="W_N_12" depart="172.00" departLane="gneE2_1" departPos="3.10" departSpeed="10.00" departDelay="0.00" arrival="279.20" arrivalLane="-gneE1_2" arrivalPos="300.00" arrivalSpeed="14.50" duration="107.20" routeLength="629.96" waitingTime="51.60" waitingCount="1" stopTime="0.00" timeLoss="63.43" rerouteNo="0" devices="tripinfo_W_N_12" vType="standard_car" speedFactor="1.05" vaporized=""/>
    <tripinfo id="W_E_11" depart="162.00" departLane="gneE2_1" departPos="3.10" departSpeed="10.00" departDelay="0.00" arrival="279.40" arrivalLane="-gneE0_0" arrivalPos="300.00" arrivalSpeed="14.21" duration="117.40" routeLength="628.90" waitingTime="61.30" waitingCount="1" stopTime="0.00" timeLoss="73.24" rerouteNo="0" devices="tripinfo_W_E_11" vType="standard_car" speedFactor="1.03" vaporized=""/>
    <tripinfo id="W_N_13" depart="174.00" departLane="gneE2_1" departPos="3.10" departSpeed="10.00" departDelay="0.00" arrival="280.20" arrivalLane="-gneE1_3" arrivalPos="300.00" arrivalSpeed="15.00" duration="106.20" routeLength="625.12" waitingTime="49.70" waitingCount="1" stopTime="0.00" timeLoss="64.07" rerouteNo="0" devices="tripinfo_W_N_13" vType="standard_car" speedFactor="1.12" vaporized=""/>
    <tripinfo id="N_S_29" depart="232.00" departLane="gneE1_3" departPos="3.10" departSpeed="10.00" departDelay="0.00" arrival="281.20" arrivalLane="-gneE3_0" arrivalPos="300.00" arrivalSpeed="12.91" duration="49.20" routeLength="628.90" waitingTime="0.00" waitingCount="0" stopTime="0.00" timeLoss="0.54" rerouteNo="0" devices="tripinfo_N_S_29" vType="standard_car" speedFactor="0.93" vaporized=""/>
    <tripinfo id="E_W_30" depart="233.00" departLane="gneE0_1" departPos="3.10" departSpeed="10.00" departDelay="0.00" arrival="288.50" arrivalLane="-gneE2_1" arrivalPos="300.00" arrivalSpeed="14.96" duration="55.50" routeLength="628.90" waitingTime="0.90" waitingCount="1" stopTime="0.00" timeLoss="13.51" rerouteNo="0" devices="tripinfo_E_W_30" vType="standard_car" speedFactor="1.18" vaporized=""/>
    <tripinfo id="E_W_34" depart="243.00" departLane="gneE0_3" departPos="3.10" departSpeed="10.00" departDelay="0.00" arrival="319.50" arrivalLane="-gneE2_0" arrivalPos="300.00" arrivalSpeed="13.80" duration="76.50" routeLength="628.90" waitingTime="19.50" waitingCount="1" stopTime="0.00" timeLoss="30.92" rerouteNo="0" devices="tripinfo_E_W_34" vType="standard_car" speedFactor="0.99" vaporized=""/>
    <tripinfo id="N_S_40" depart="265.00" departLane="gneE1_3" departPos="3.10" departSpeed="10.00" departDelay="0.00" arrival="324.60" arrivalLane="-gneE3_1" arrivalPos="300.00" arrivalSpeed="14.31" duration="59.60" routeLength="628.90" waitingTime="3.40" waitingCount="1" stopTime="0.00" timeLoss="15.52" rerouteNo="0" devices="tripinfo_N_S_40" vType="standard_car" speedFactor="1.03" vaporized=""/>
    <tripinfo id="N_S_43" depart="267.00" departLane="gneE1_3" departPos="3.10" departSpeed="10.00" departDelay="0.00" arrival="326.70" arrivalLane="-gneE3_2" arrivalPos="300.00" arrivalSpeed="14.40" duration="59.70" routeLength="628.90" waitingTime="2.00" waitingCount="1" stopTime="0.00" timeLoss="15.98" rerouteNo="0" devices="tripinfo_N_S_43" vType="standard_car" speedFactor="1.04" vaporized=""/>
    <tripinfo id="S_N_19" depart="195.00" departLane="gneE3_0" departPos="3.10" departSpeed="10.00" departDelay="0.00" arrival="328.00" arrivalLane="-gneE1_1" arrivalPos="300.00" arrivalSpeed="14.96" duration="133.00" routeLength="628.90" waitingTime="71.40" waitingCount="2" stopTime="0.00" timeLoss="91.07" rerouteNo="0" devices="tripinfo_S_N_19" vType="standard_car" speedFactor="1.16" vaporized=""/>
    <tripinfo id="S_W_27" depart="229.00" departLane="gneE3_2" departPos="3.10" departSpeed="10.00" departDelay="0.00" arrival="330.00" arrivalLane="-gneE2_2" arrivalPos="300.00" arrivalSpeed="13.15" duration="101.00" routeLength="625.12" waitingTime="42.20" waitingCount="1" stopTime="0.00" timeLoss="52.98" rerouteNo="0" devices="tripinfo_S_W_27" vType="standard_car" speedFactor="0.95" vaporized=""/>
    <tripinfo id="S_N_25" depart="223.00" departLane="gneE3_3" departPos="3.10" departSpeed="10.00" departDelay="0.00" arrival="331.60" arrivalLane="-gneE1_1" arrivalPos="300.00" arrivalSpeed="12.08" duration="108.60" routeLength="628.90" waitingTime="46.70" waitingCount="1" stopTime="0.00" timeLoss="56.66" rerouteNo="0" devices="tripinfo_S_N_25" vType="standard_car" speedFactor="0.87" vaporized=""/>
    <tripinfo id="W_E_22" depart="212.00" departLane="gneE2_0" departPos="3.10" departSpeed="10.00" departDelay="0.00" arrival="332.90" arrivalLane="-gneE0_0" arrivalPos="300.00" arrivalSpeed="13.52" duration="120.90" routeLength="628.90" waitingTime="56.40" waitingCount="2" stopTime="0.00" timeLoss="74.39" rerouteNo="0" devices="tripinfo_W_E_22" vType="standard_car" speedFactor="0.98" vaporized=""/>
    <tripinfo id="W_E_17" depart="183.00" departLane="gneE2_3" departPos="3.10" departSpeed="10.00" departDelay="0.00" arrival="333.40" arrivalLane="-gneE0_1" arrivalPos="300.00" arrivalSpeed="13.05" duration="150.40" routeLength="628.90" waitingTime="84.90" waitingCount="2" stopTime="0.00" timeLoss="102.24" rerouteNo="0" devices="tripinfo_W_E_17" vType="standard_car" speedFactor="0.94" vaporized=""/>
    <tripinfo id="W_N_24" depart="216.00" departLane="gneE2_0" departPos="3.10" departSpeed="10.00" departDelay="0.00" arrival="337.20" arrivalLane="-gneE1_0" arrivalPos="300.00" arrivalSpeed="11.44" duration="121.20" routeLength="625.12" waitingTime="47.90" waitingCount="1" stopTime="0.00" timeLoss="66.03" rerouteNo="0" devices="tripinfo_W_N_24" vType="standard_car" speedFactor="0.83" vaporized=""/>
    <tripinfo id="S_W_41" depart="265.00" departLane="gneE3_3" departPos="3.10" departSpeed="10.00" departDelay="0.00" arrival="337.80" arrivalLane="-gneE2_1" arrivalPos="300.00" arrivalSpeed="13.27" duration="72.80" routeLength="629.96" waitingTime="6.30" waitingCount="2" stopTime="0.00" timeLoss="25.00" rerouteNo="0" devices="tripinfo_S_W_41" vType="standard_car" speedFactor="0.96" vaporized=""/>
    <tripinfo id="S_N_28" depart="230.00" departLane="gneE3_0" departPos="3.10" departSpeed="10.00" departDelay="0.00" arrival="338.40" arrivalLane="-gneE1_1" arrivalPos="300.00" arrivalSpeed="14.03" duration="108.40" routeLength="628.90" waitingTime="43.00" waitingCount="2" stopTime="0.00" timeLoss="66.39" rerouteNo="0" devices="tripinfo_S_N_28" vType="standard_car" speedFactor="1.13" vaporized=""/>
    <tripinfo id="N_S_51" depart="296.00" departLane="gneE1_3" departPos="3.10" departSpeed="10.00" departDelay="0.00" arrival="341.60" arrivalLane="-gneE3_2" arrivalPos="300.00" arrivalSpeed="14.97" duration="45.60" routeLength="628.90" waitingTime="0.00" waitingCount="0" stopTime="0.00" timeLoss="3.59" rerouteNo="0" devices="tripinfo_N_S_51" vType="standard_car" speedFactor="1.17" vaporized=""/>
    <tripinfo id="N_S_47" depart="280.00" departLane="gneE1_1" departPos="3.10" departSpeed="10.00" departDelay="0.00" arrival="343.20" arrivalLane="-gneE3_0" arrivalPos="300.00" arrivalSpeed="12.46" duration="63.20" routeLength="628.90" waitingTime="0.50" waitingCount="1" stopTime="0.00" timeLoss="12.88" rerouteNo="0" devices="tripinfo_N_S_47" vType="standard_car" speedFactor="0.90" vaporized=""/>
    <tripinfo id="S_N_53" depart="301.00" departLane="gneE3_3" departPos="3.10" departSpeed="10.00" departDelay="0.00" arrival="344.20" arrivalLane="-gneE1_2" arrivalPos="300.00" arrivalSpeed="14.97" duration="43.20" routeLength="628.90" waitingTime="0.00" waitingCount="0" stopTime="0.00" timeLoss="1.21" rerouteNo="0" devices="tripinfo_S_N_53" vType="standard_car" speedFactor="1.10" vaporized=""/>
    <tripinfo id="S_N_52" depart="299.00" departLane="gneE3_1" departPos="3.10" departSpeed="10.00" departDelay="0.00" arrival="344.40" arrivalLane="-gneE1_1" arrivalPos="300.00" arrivalSpeed="14.11" duration="45.40" routeLength="628.90" waitingTime="0.00" waitingCount="0" stopTime="0.00" timeLoss="0.86" rerouteNo="0" devices="tripinfo_S_N_52" vType="standard_car" speedFactor="1.02" vaporized=""/>
    <tripinfo id="N_S_49" depart="292.00" departLane="gneE1_2" departPos="3.10" departSpeed="10.00" departDelay="0.00" arrival="345.60" arrivalLane="-gneE3_0" arrivalPos="300.00" arrivalSpeed="11.76" duration="53.60" routeLength="628.90" waitingTime="0.00" waitingCount="0" stopTime="0.00" timeLoss="0.28" rerouteNo="0" devices="tripinfo_N_S_49" vType="standard_car" speedFactor="0.85" vaporized=""/>
    <tripinfo id="S_N_55" depart="302.00" departLane="gneE3_1" departPos="3.10" departSpeed="10.00" departDelay="0.00" arrival="348.30" arrivalLane="-gneE1_1" arrivalPos="300.00" arrivalSpeed="13.82" duration="46.30" routeLength="628.90" waitingTime="0.00" waitingCount="0" stopTime="0.00" timeLoss="0.77" rerouteNo="0" devices="tripinfo_S_N_55" vType="standard_car" speedFactor="1.00" vaporized=""/>
    <tripinfo id="S_W_54" depart="302.00" departLane="gneE3_2" departPos="3.10" departSpeed="10.00" departDelay="0.00" arrival="351.50" arrivalLane="-gneE2_2" arrivalPos="300.00" arrivalSpeed="13.91" duration="49.50" routeLength="629.96" waitingTime="0.00" waitingCount="0" stopTime="0.00" timeLoss="3.88" rerouteNo="0" devices="tripinfo_S_W_54" vType="standard_car" speedFactor="1.00" vaporized=""/>
    <tripinfo id="N_S_56" depart="306.00" departLane="gneE1_1" departPos="3.10" departSpeed="10.00" departDelay="0.00" arrival="356.80" arrivalLane="-gneE3_0" arrivalPos="300.00" arrivalSpeed="12.44" duration="50.80" routeLength="628.90" waitingTime="0.00" waitingCount="0" stopTime="0.00" timeLoss="0.42" rerouteNo="0" devices="tripinfo_N_S_56" vType="standard_car" speedFactor="0.90" vaporized=""/>
    <tripinfo id="S_N_61" depart="320.00" departLane="gneE3_2" departPos="3.10" departSpeed="10.00" departDelay="0.00" arrival="370.40" arrivalLane="-gneE1_1" arrivalPos="300.00" arrivalSpeed="14.97" duration="50.40" routeLength="628.90" waitingTime="0.00" waitingCount="0" stopTime="0.00" timeLoss="8.40" rerouteNo="0" devices="tripinfo_S_N_61" vType="standard_car" speedFactor="1.12" vaporized=""/>
    <tripinfo id="N_S_62" depart="324.00" departLane="gneE1_3" departPos="3.10" departSpeed="10.00" departDelay="0.00" arrival="370.90" arrivalLane="-gneE3_1" arrivalPos="300.00" arrivalSpeed="14.10" duration="46.90" routeLength="628.90" waitingTime="0.00" waitingCount="0" stopTime="0.00" timeLoss="2.28" rerouteNo="0" devices="tripinfo_N_S_62" vType="standard_car" speedFactor="1.02" vaporized=""/>
    <tripinfo id="N_S_64" depart="324.10" departLane="gneE1_1" departPos="3.10" departSpeed="10.00" departDelay="0.10" arrival="373.60" arrivalLane="-gneE3_1" arrivalPos="300.00" arrivalSpeed="13.02" duration="49.50" routeLength="628.90" waitingTime="0.00" waitingCount="0" stopTime="0.00" timeLoss="1.18" rerouteNo="0" devices="tripinfo_N_S_64" vType="standard_car" speedFactor="0.94" vaporized=""/>
    <tripinfo id="S_N_60" depart="317.00" departLane="gneE3_1" departPos="3.10" departSpeed="10.00" departDelay="0.00" arrival="373.90" arrivalLane="-gneE1_1" arrivalPos="300.00" arrivalSpeed="14.98" duration="56.90" routeLength="628.90" waitingTime="2.40" waitingCount="1" stopTime="0.00" timeLoss="14.93" rerouteNo="0" devices="tripinfo_S_N_60" vType="standard_car" speedFactor="1.08" vaporized=""/>
    <tripinfo id="E_W_58" depart="312.00" departLane="gneE0_2" departPos="3.10" departSpeed="10.00" departDelay="0.00" arrival="381.40" arrivalLane="-gneE2_1" arrivalPos="300.00" arrivalSpeed="14.21" duration="69.40" routeLength="628.90" waitingTime="13.30" waitingCount="1" stopTime="0.00" timeLoss="25.15" rerouteNo="0" devices="tripinfo_E_W_58" vType="standard_car" speedFactor="1.02" vaporized=""/>
    <tripinfo id="E_S_48" depart="285.00" departLane="gneE0_0" departPos="3.10" departSpeed="10.00" departDelay="0.00" arrival="383.90" arrivalLane="-gneE3_1" arrivalPos="300.00" arrivalSpeed="12.17" duration="98.90" routeLength="629.96" waitingTime="37.60" waitingCount="1" stopTime="0.00" timeLoss="46.67" rerouteNo="0" devices="tripinfo_E_S_48" vType="standard_car" speedFactor="0.88" vaporized=""/>
    <tripinfo id="S_N_63" depart="324.00" departLane="gneE3_3" departPos="3.10" departSpeed="10.00" departDelay="0.00" arrival="388.20" arrivalLane="-gneE1_0" arrivalPos="300.00" arrivalSpeed="13.71" duration="64.20" routeLength="628.90" waitingTime="7.00" waitingCount="1" stopTime="0.00" timeLoss="18.32" rerouteNo="0" devices="tripinfo_S_N_63" vType="standard_car" speedFactor="0.99" vaporized=""/>
    <tripinfo id="N_S_65" depart="327.00" departLane="gneE1_0" departPos="3.10" departSpeed="10.00" departDelay="0.00" arrival="392.10" arrivalLane="-gneE3_0" arrivalPos="300.00" arrivalSpeed="12.23" duration="65.10" routeLength="628.90" waitingTime="2.80" waitingCount="1" stopTime="0.00" timeLoss="13.70" rerouteNo="0" devices="tripinfo_N_S_65" vType="standard_car" speedFactor="0.88" vaporized=""/>
    <tripinfo id="N_E_67" depart="334.00" departLane="gneE1_1" departPos="3.10" departSpeed="10.00" departDelay="0.00" arrival="396.20" arrivalLane="-gneE0_2" arrivalPos="300.00" arrivalSpeed="12.66" duration="62.20" routeLength="625.12" waitingTime="2.60" waitingCount="1" stopTime="0.00" timeLoss="12.38" rerouteNo="0" devices="tripinfo_N_E_67" vType="standard_car" speedFactor="0.91" vaporized=""/>
    <tripinfo id="S_W_68" depart="338.00" departLane="gneE3_1" departPos="3.10" departSpeed="10.00" departDelay="0.00" arrival="410.40" arrivalLane="-gneE2_2" arrivalPos="300.00" arrivalSpeed="14.40" duration="72.40" routeLength="629.96" waitingTime="16.80" waitingCount="1" stopTime="0.00" timeLoss="28.36" rerouteNo="0" devices="tripinfo_S_W_68" vType="standard_car" speedFactor="1.04" vaporized=""/>
    <tripinfo id="S_N_69" depart="339.00" departLane="gneE3_0" departPos="3.10" departSpeed="10.00" departDelay="0.00" arrival="410.80" arrivalLane="-gneE1_1" arrivalPos="300.00" arrivalSpeed="14.15" duration="71.80" routeLength="628.90" waitingTime="15.60" waitingCount="1" stopTime="0.00" timeLoss="27.46" rerouteNo="0" devices="tripinfo_S_N_69" vType="standard_car" speedFactor="1.02" vaporized=""/>
    <tripinfo id="E_S_73" depart="355.00" departLane="gneE0_0" departPos="3.10" departSpeed="10.00" departDelay="0.00" arrival="416.70" arrivalLane="-gneE3_2" arrivalPos="300.00" arrivalSpeed="14.62" duration="61.70" routeLength="629.96" waitingTime="6.80" waitingCount="1" stopTime="0.00" timeLoss="18.31" rerouteNo="0" devices="tripinfo_E_S_73" vType="standard_car" speedFactor="1.06" vaporized=""/>
    <tripinfo id="E_W_70" depart="341.00" departLane="gneE0_1" departPos="3.10" departSpeed="10.00" departDelay="0.00" arrival="416.90" arrivalLane="-gneE2_0" arrivalPos="300.00" arrivalSpeed="14.20" duration="75.90" routeLength="628.90" waitingTime="20.40" waitingCount="1" stopTime="0.00" timeLoss="31.63" rerouteNo="0" devices="tripinfo_E_W_70" vType="standard_car" speedFactor="1.02" vaporized=""/>
    <tripinfo id="N_E_80" depart="367.10" departLane="gneE1_1" departPos="3.10" departSpeed="10.00" departDelay="0.10" arrival="423.60" arrivalLane="-gneE0_2" arrivalPos="300.00" arrivalSpeed="14.33" duration="56.50" routeLength="625.12" waitingTime="0.60" waitingCount="1" stopTime="0.00" timeLoss="12.45" rerouteNo="0" devices="tripinfo_N_E_80" vType="standard_car" speedFactor="1.03" vaporized=""/>
    <tripinfo id="S_N_71" depart="342.00" departLane="gneE3_3" departPos="3.10" departSpeed="10.00" departDelay="0.00" arrival="425.90" arrivalLane="-gneE1_1" arrivalPos="300.00" arrivalSpeed="13.50" duration="83.90" routeLength="628.90" waitingTime="18.00" waitingCount="2" stopTime="0.00" timeLoss="37.29" rerouteNo="0" devices="tripinfo_S_N_71" vType="standard_car" speedFactor="0.97" vaporized=""/>
    <tripinfo id="N_S_77" depart="366.00" departLane="gneE1_2" departPos="3.10" departSpeed="10.00" departDelay="0.00" arrival="425.90" arrivalLane="-gneE3_0" arrivalPos="300.00" arrivalSpeed="13.59" duration="59.90" routeLength="628.90" waitingTime="2.30" waitingCount="1" stopTime="0.00" timeLoss="13.74" rerouteNo="0" devices="tripinfo_N_S_77" vType="standard_car" speedFactor="0.98" vaporized=""/>
    <tripinfo id="E_N_89" depart="379.00" departLane="gneE0_2" departPos="3.10" departSpeed="10.00" departDelay="0.00" arrival="426.40" arrivalLane="-gneE1_0" arrivalPos="300.00" arrivalSpeed="14.17" duration="47.40" routeLength="605.77" waitingTime="0.00" waitingCount="0" stopTime="0.00" timeLoss="3.99" rerouteNo="0" devices="tripinfo_E_N_89" vType="standard_car" speedFactor="1.02" vaporized=""/>
    <tripinfo id="N_E_87" depart="378.00" departLane="gneE1_0" departPos="3.10" departSpeed="10.00" departDelay="0.00" arrival="426.50" arrivalLane="-gneE0_2" arrivalPos="300.00" arrivalSpeed="14.47" duration="48.50" routeLength="629.96" waitingTime="0.00" waitingCount="0" stopTime="0.00" timeLoss="4.60" rerouteNo="0" devices="tripinfo_N_E_87" vType="standard_car" speedFactor="1.04" vaporized=""/>
    <tripinfo id="S_N_75" depart="357.00" departLane="gneE3_2" departPos="3.10" departSpeed="10.00" departDelay="0.00" arrival="427.20" arrivalLane="-gneE1_1" arrivalPos="300.00" arrivalSpeed="13.67" duration="70.20" routeLength="628.90" waitingTime="6.80" waitingCount="1" stopTime="0.00" timeLoss="24.21" rerouteNo="0" devices="tripinfo_S_N_75" vType="standard_car" speedFactor="0.98" vaporized=""/>
    <tripinfo id="E_S_79" depart="367.00" departLane="gneE0_3" departPos="3.10" departSpeed="10.00" departDelay="0.00" arrival="432.90" arrivalLane="-gneE3_2" arrivalPos="300.00" arrivalSpeed="14.96" duration="65.90" routeLength="625.12" waitingTime="13.20" waitingCount="1" stopTime="0.00" timeLoss="23.71" rerouteNo="0" devices="tripinfo_E_S_79" vType="standard_car" speedFactor="1.09" vaporized=""/>
    <tripinfo id="E_W_78" depart="366.00" departLane="gneE0_1" departPos="3.10" departSpeed="10.00" departDelay="0.00" arrival="434.30" arrivalLane="-gneE2_0" arrivalPos="300.00" arrivalSpeed="13.97" duration="68.30" routeLength="628.90" waitingTime="10.90" waitingCount="1" stopTime="0.00" timeLoss="23.32" rerouteNo="0" devices="tripinfo_E_W_78" vType="standard_car" speedFactor="1.01" vaporized=""/>
    <tripinfo id="E_W_74" depart="355.00" departLane="gneE0_2" departPos="3.10" departSpeed="10.00" departDelay="0.00" arrival="434.60" arrivalLane="-gneE2_1" arrivalPos="300.00" arrivalSpeed="13.25" duration="79.60" routeLength="628.90" waitingTime="14.20" waitingCount="2" stopTime="0.00" timeLoss="32.18" rerouteNo="0" devices="tripinfo_E_W_74" vType="standard_car" speedFactor="0.96" vaporized=""/>
    <tripinfo id="S_E_94" depart="389.00" departLane="gneE3_1" departPos="3.10" departSpeed="10.00" departDelay="0.00" arrival="434.60" arrivalLane="-gneE0_0" arrivalPos="300.00" arrivalSpeed="14.99" duration="45.60" routeLength="605.77" waitingTime="0.00" waitingCount="0" stopTime="0.00" timeLoss="4.51" rerouteNo="0" devices="tripinfo_S_E_94" vType="standard_car" speedFactor="1.09" vaporized=""/>
    <tripinfo id="N_S_90" depart="380.00" departLane="gneE1_2" departPos="3.10" departSpeed="10.00" departDelay="0.00" arrival="439.30" arrivalLane="-gneE3_0" arrivalPos="300.00" arrivalSpeed="14.08" duration="59.30" routeLength="628.90" waitingTime="1.60" waitingCount="1" stopTime="0.00" timeLoss="14.77" rerouteNo="0" devices="tripinfo_N_S_90" vType="standard_car" speedFactor="1.02" vaporized=""/>
    <tripinfo id="S_W_84" depart="374.00" departLane="gneE3_1" departPos="3.10" departSpeed="10.00" departDelay="0.00" arrival="442.80" arrivalLane="-gneE2_2" arrivalPos="300.00" arrivalSpeed="14.99" duration="68.80" routeLength="625.12" waitingTime="13.90" waitingCount="1" stopTime="0.00" timeLoss="26.71" rerouteNo="0" devices="tripinfo_S_W_84" vType="standard_car" speedFactor="1.15" vaporized=""/>
    <tripinfo id="S_W_86" depart="377.00" departLane="gneE3_3" departPos="3.10" departSpeed="10.00" departDelay="0.00" arrival="444.00" arrivalLane="-gneE2_1" arrivalPos="300.00" arrivalSpeed="13.91" duration="67.00" routeLength="629.96" waitingTime="9.40" waitingCount="1" stopTime="0.00" timeLoss="21.31" rerouteNo="0" devices="tripinfo_S_W_86" vType="standard_car" speedFactor="1.00" vaporized=""/>
    <tripinfo id="S_N_81" depart="370.00" departLane="gneE3_2" departPos="3.10" departSpeed="10.00" departDelay="0.00" arrival="444.30" arrivalLane="-gneE1_0" arrivalPos="300.00" arrivalSpeed="13.85" duration="74.30" routeLength="628.90" waitingTime="15.10" waitingCount="1" stopTime="0.00" timeLoss="28.91" rerouteNo="0" devices="tripinfo_S_N_81" vType="standard_car" speedFactor="1.00" vaporized=""/>
    <tripinfo id="N_E_96" depart="398.00" departLane="gneE1_2" departPos="3.10" departSpeed="10.00" departDelay="0.00" arrival="444.40" arrivalLane="-gneE0_3" arrivalPos="300.00" arrivalSpeed="14.01" duration="46.40" routeLength="625.12" waitingTime="0.00" waitingCount="0" stopTime="0.00" timeLoss="1.27" rerouteNo="0" devices="tripinfo_N_E_96" vType="standard_car" speedFactor="1.01" vaporized=""/>
    <tripinfo id="N_S_95" depart="397.00" departLane="gneE1_0" departPos="3.10" departSpeed="10.00" departDelay="0.00" arrival="445.50" arrivalLane="-gneE3_1" arrivalPos="300.00" arrivalSpeed="14.64" duration="48.50" routeLength="628.90" waitingTime="0.00" waitingCount="0" stopTime="0.00" timeLoss="5.64" rerouteNo="0" devices="tripinfo_N_S_95" vType="standard_car" speedFactor="1.06" vaporized=""/>
    <tripinfo id="N_S_92" depart="385.00" departLane="gneE1_1" departPos="3.10" departSpeed="10.00" departDelay="0.00" arrival="450.90" arrivalLane="-gneE3_0" arrivalPos="300.00" arrivalSpeed="11.55" duration="65.90" routeLength="628.90" waitingTime="1.90" waitingCount="1" stopTime="0.00" timeLoss="11.51" rerouteNo="0" devices="tripinfo_N_S_92" vType="standard_car" speedFactor="0.83" vaporized=""/>