<?xml version="1.0" encoding="UTF-8"?>

<!-- generated on 2021-11-08 22:21:38 by Eclipse SUMO GUI Version 1.10.0
<configuration xmlns:xsi="http://www.w3.org/2001/XMLSchema-instance" xsi:noNamespaceSchemaLocation="http://sumo.dlr.de/xsd/sumoConfiguration.xsd">

    <input>
        <net-file value="netFile2/net_fixed.net.xml"/>
        <route-files value="netFile2/net_fixed.rou.xml"/>
    </input>

    <output>
        <tripinfo-output value="tripinfo.xml"/>
    </output>

    <time>
        <begin value="0"/>
        <end value="5400"/>
        <step-length value="0.1"/>
    </time>

    <processing>
        <time-to-teleport value="-1"/>
        <waiting-time-memory value="15"/>
    </processing>

    <traci_server>
        <remote-port value="64550"/>
    </traci_server>

    <gui_only>
        <start value="true"/>
        <tracker-interval value="0.1"/>
    </gui_only>

</configuration>
-->

<tripinfos xmlns:xsi="http://www.w3.org/2001/XMLSchema-instance" xsi:noNamespaceSchemaLocation="http://sumo.dlr.de/xsd/tripinfo_file.xsd">
    <tripinfo id="E_N_1" depart="43.00" departLane="gneE0_1" departPos="3.10" departSpeed="10.00" departDelay="0.00" arrival="93.70" arrivalLane="-gneE1_0" arrivalPos="300.00" arrivalSpeed="13.00" duration="50.70" routeLength="605.77" waitingTime="0.00" waitingCount="0" stopTime="0.00" timeLoss="3.42" rerouteNo="0" devices="tripinfo_E_N_1" vType="standard_car" speedFactor="0.94" vaporized=""/>
    <tripinfo id="E_W_0" depart="42.00" departLane="gneE0_2" departPos="3.10" departSpeed="10.00" departDelay="0.00" arrival="98.20" arrivalLane="-gneE2_1" arrivalPos="300.00" arrivalSpeed="14.67" duration="56.20" routeLength="628.90" waitingTime="1.10" waitingCount="1" stopTime="0.00" timeLoss="13.42" rerouteNo="0" devices="tripinfo_E_W_0" vType="standard_car" speedFactor="1.06" vaporized=""/>
    <tripinfo id="E_N_4" depart="63.00" departLane="gneE0_3" departPos="3.10" departSpeed="10.00" departDelay="0.00" arrival="110.40" arrivalLane="-gneE1_0" arrivalPos="300.00" arrivalSpeed="14.29" duration="47.40" routeLength="605.77" waitingTime="0.00" waitingCount="0" stopTime="0.00" timeLoss="4.31" rerouteNo="0" devices="tripinfo_E_N_4" vType="standard_car" speedFactor="1.03" vaporized=""/>
    <tripinfo id="E_N_6" depart="73.00" departLane="gneE0_0" departPos="3.10" departSpeed="10.00" departDelay="0.00" arrival="119.80" arrivalLane="-gneE1_0" arrivalPos="300.00" arrivalSpeed="14.50" duration="46.80" routeLength="605.77" waitingTime="0.00" waitingCount="0" stopTime="0.00" timeLoss="4.34" rerouteNo="0" devices="tripinfo_E_N_6" vType="standard_car" speedFactor="1.05" vaporized=""/>
    <tripinfo id="E_N_8" depart="79.00" departLane="gneE0_1" departPos="3.10" departSpeed="10.00" departDelay="0.00" arrival="129.90" arrivalLane="-gneE1_0" arrivalPos="300.00" arrivalSpeed="12.99" duration="50.90" routeLength="605.77" waitingTime="0.00" waitingCount="0" stopTime="0.00" timeLoss="3.53" rerouteNo="0" devices="tripinfo_E_N_8" vType="standard_car" speedFactor="0.94" vaporized=""/>
    <tripinfo id="N_W_7" depart="77.00" departLane="gneE1_2" departPos="3.10" departSpeed="10.00" departDelay="0.00" arrival="130.20" arrivalLane="-gneE2_0" arrivalPos="300.00" arrivalSpeed="12.28" duration="53.20" routeLength="605.77" waitingTime="0.00" waitingCount="0" stopTime="0.00" timeLoss="3.16" rerouteNo="0" devices="tripinfo_N_W_7" vType="standard_car" speedFactor="0.89" vaporized=""/>
    <tripinfo id="S_E_9" depart="89.00" departLane="gneE3_3" departPos="3.10" departSpeed="10.00" departDelay="0.00" arrival="143.70" arrivalLane="-gneE0_0" arrivalPos="300.00" arrivalSpeed="11.86" duration="54.70" routeLength="605.77" waitingTime="0.00" waitingCount="0" stopTime="0.00" timeLoss="2.93" rerouteNo="0" devices="tripinfo_S_E_9" vType="standard_car" speedFactor="0.86" vaporized=""/>
    <tripinfo id="W_S_11" depart="102.00" departLane="gneE2_1" departPos="3.10" departSpeed="10.00" departDelay="0.00" arrival="149.40" arrivalLane="-gneE3_0" arrivalPos="300.00" arrivalSpeed="14.22" duration="47.40" routeLength="605.77" waitingTime="0.00" waitingCount="0" stopTime="0.00" timeLoss="4.16" rerouteNo="0" devices="tripinfo_W_S_11" vType="standard_car" speedFactor="1.03" vaporized=""/>
    <tripinfo id="N_E_3" depart="62.00" departLane="gneE1_3" departPos="3.10" departSpeed="10.00" departDelay="0.00" arrival="163.80" arrivalLane="-gneE0_2" arrivalPos="300.00" arrivalSpeed="15.00" duration="101.80" routeLength="629.96" waitingTime="47.30" waitingCount="1" stopTime="0.00" timeLoss="59.41" rerouteNo="0" devices="tripinfo_N_E_3" vType="standard_car" speedFactor="1.08" vaporized=""/>
    <tripinfo id="N_S_2" depart="56.00" departLane="gneE1_3" departPos="3.10" departSpeed="10.00" departDelay="0.00" arrival="164.80" arrivalLane="-gneE3_0" arrivalPos="300.00" arrivalSpeed="14.01" duration="108.80" routeLength="628.90" waitingTime="52.40" waitingCount="1" stopTime="0.00" timeLoss="63.90" rerouteNo="0" devices="tripinfo_N_S_2" vType="standard_car" speedFactor="1.01" vaporized=""/>
    <tripinfo id="E_N_18" depart="115.00" departLane="gneE0_0" departPos="3.10" departSpeed="10.00" departDelay="0.00" arrival="166.00" arrivalLane="-gneE1_0" arrivalPos="300.00" arrivalSpeed="12.99" duration="51.00" routeLength="605.77" waitingTime="0.00" waitingCount="0" stopTime="0.00" timeLoss="3.60" rerouteNo="0" devices="tripinfo_E_N_18" vType="standard_car" speedFactor="0.94" vaporized=""/>
    <tripinfo id="N_S_16" depart="112.00" departLane="gneE1_3" departPos="3.10" departSpeed="10.00" departDelay="0.00" arrival="167.10" arrivalLane="-gneE3_1" arrivalPos="300.00" arrivalSpeed="12.19" duration="55.10" routeLength="628.90" waitingTime="0.00" waitingCount="0" stopTime="0.00" timeLoss="3.50" rerouteNo="0" devices="tripinfo_N_S_16" vType="standard_car" speedFactor="0.88" vaporized=""/>
    <tripinfo id="N_S_5" depart="72.00" departLane="gneE1_2" departPos="3.10" departSpeed="10.00" departDelay="0.00" arrival="169.60" arrivalLane="-gneE3_0" arrivalPos="300.00" arrivalSpeed="11.54" duration="97.60" routeLength="628.90" waitingTime="30.10" waitingCount="1" stopTime="0.00" timeLoss="43.09" rerouteNo="0" devices="tripinfo_N_S_5" vType="standard_car" speedFactor="0.83" vaporized=""/>
    <tripinfo id="W_S_21" depart="132.00" departLane="gneE2_0" departPos="3.10" departSpeed="10.00" departDelay="0.00" arrival="180.00" arrivalLane="-gneE3_0" arrivalPos="300.00" arrivalSpeed="13.99" duration="48.00" routeLength="605.77" waitingTime="0.00" waitingCount="0" stopTime="0.00" timeLoss="4.05" rerouteNo="0" devices="tripinfo_W_S_21" vType="standard_car" speedFactor="1.01" vaporized=""/>
    <tripinfo id="S_E_22" depart="137.00" departLane="gneE3_2" departPos="3.10" departSpeed="10.00" departDelay="0.00" arrival="186.20" arrivalLane="-gneE0_0" arrivalPos="300.00" arrivalSpeed="13.52" duration="49.20" routeLength="605.77" waitingTime="0.00" waitingCount="0" stopTime="0.00" timeLoss="3.70" rerouteNo="0" devices="tripinfo_S_E_22" vType="standard_car" speedFactor="0.98" vaporized=""/>
    <tripinfo id="E_N_30" depart="146.00" departLane="gneE0_1" departPos="3.10" departSpeed="10.00" departDelay="0.00" arrival="191.10" arrivalLane="-gneE1_0" arrivalPos="300.00" arrivalSpeed="14.99" duration="45.10" routeLength="605.77" waitingTime="0.00" waitingCount="0" stopTime="0.00" timeLoss="4.08" rerouteNo="0" devices="tripinfo_E_N_30" vType="standard_car" speedFactor="1.18" vaporized=""/>
    <tripinfo id="W_S_23" depart="138.00" departLane="gneE2_0" departPos="3.10" departSpeed="10.00" departDelay="0.00" arrival="191.20" arrivalLane="-gneE3_0" arrivalPos="300.00" arrivalSpeed="12.36" duration="53.20" routeLength="605.77" waitingTime="0.00" waitingCount="0" stopTime="0.00" timeLoss="3.31" rerouteNo="0" devices="tripinfo_W_S_23" vType="standard_car" speedFactor="0.89" vaporized=""/>
    <tripinfo id="N_W_27" depart="141.00" departLane="gneE1_0" departPos="3.10" departSpeed="10.00" departDelay="0.00" arrival="191.60" arrivalLane="-gneE2_0" arrivalPos="300.00" arrivalSpeed="13.14" duration="50.60" routeLength="605.77" waitingTime="0.00" waitingCount="0" stopTime="0.00" timeLoss="3.80" rerouteNo="0" devices="tripinfo_N_W_27" vType="standard_car" speedFactor="0.95" vaporized=""/>
    <tripinfo id="S_E_25" depart="140.00" departLane="gneE3_1" departPos="3.10" departSpeed="10.00" departDelay="0.00" arrival="193.80" arrivalLane="-gneE0_0" arrivalPos="300.00" arrivalSpeed="12.11" duration="53.80" routeLength="605.77" waitingTime="0.00" waitingCount="0" stopTime="0.00" timeLoss="3.02" rerouteNo="0" devices="tripinfo_S_E_25" vType="standard_car" speedFactor="0.87" vaporized=""/>
    <tripinfo id="S_N_13" depart="107.10" departLane="gneE3_3" departPos="3.10" departSpeed="10.00" departDelay="0.10" arrival="197.00" arrivalLane="-gneE1_1" arrivalPos="300.00" arrivalSpeed="14.98" duration="89.90" routeLength="628.90" waitingTime="34.70" waitingCount="1" stopTime="0.00" timeLoss="47.97" rerouteNo="0" devices="tripinfo_S_N_13" vType="standard_car" speedFactor="1.12" vaporized=""/>
    <tripinfo id="S_W_12" depart="106.00" departLane="gneE3_1" departPos="3.10" departSpeed="10.00" departDelay="0.00" arrival="197.10" arrivalLane="-gneE2_2" arrivalPos="300.00" arrivalSpeed="14.51" duration="91.10" routeLength="629.96" waitingTime="35.90" waitingCount="1" stopTime="0.00" timeLoss="47.43" rerouteNo="0" devices="tripinfo_S_W_12" vType="standard_car" speedFactor="1.05" vaporized=""/>
    <tripinfo id="S_N_19" depart="127.00" departLane="gneE3_3" departPos="3.10" departSpeed="10.00" departDelay="0.00" arrival="197.80" arrivalLane="-gneE1_2" arrivalPos="300.00" arrivalSpeed="14.99" duration="70.80" routeLength="628.90" waitingTime="12.30" waitingCount="1" stopTime="0.00" timeLoss="28.86" rerouteNo="0" devices="tripinfo_S_N_19" vType="standard_car" speedFactor="1.16" vaporized=""/>
    <tripinfo id="S_W_17" depart="114.00" departLane="gneE3_2" departPos="3.10" departSpeed="10.00" departDelay="0.00" arrival="198.90" arrivalLane="-gneE2_3" arrivalPos="300.00" arrivalSpeed="13.06" duration="84.90" routeLength="625.12" waitingTime="25.90" waitingCount="1" stopTime="0.00" timeLoss="36.47" rerouteNo="0" devices="tripinfo_S_W_17" vType="standard_car" speedFactor="0.94" vaporized=""/>
    <tripinfo id="S_E_35" depart="160.00" departLane="gneE3_0" departPos="3.10" departSpeed="10.00" departDelay="0.00" arrival="207.70" arrivalLane="-gneE0_0" arrivalPos="300.00" arrivalSpeed="14.13" duration="47.70" routeLength="605.77" waitingTime="0.00" waitingCount="0" stopTime="0.00" timeLoss="4.15" rerouteNo="0" devices="tripinfo_S_E_35" vType="standard_car" speedFactor="1.02" vaporized=""/>
    <tripinfo id="S_W_36" depart="165.00" departLane="gneE3_2" departPos="3.10" departSpeed="10.00" departDelay="0.00" arrival="213.00" arrivalLane="-gneE2_3" arrivalPos="300.00" arrivalSpeed="13.49" duration="48.00" routeLength="625.12" waitingTime="0.00" waitingCount="0" stopTime="0.00" timeLoss="1.13" rerouteNo="0" devices="tripinfo_S_W_36" vType="standard_car" speedFactor="0.97" vaporized=""/>
    <tripinfo id="S_N_40" depart="172.00" departLane="gneE3_3" departPos="3.10" departSpeed="10.00" departDelay="0.00" arrival="216.90" arrivalLane="-gneE1_1" arrivalPos="300.00" arrivalSpeed="14.30" duration="44.90" routeLength="628.90" waitingTime="0.00" waitingCount="0" stopTime="0.00" timeLoss="0.96" rerouteNo="0" devices="tripinfo_S_N_40" vType="standard_car" speedFactor="1.03" vaporized=""/>
    <tripinfo id="E_S_10" depart="94.00" departLane="gneE0_3" departPos="3.10" departSpeed="10.00" departDelay="0.00" arrival="229.80" arrivalLane="-gneE3_3" arrivalPos="300.00" arrivalSpeed="14.95" duration="135.80" routeLength="625.12" waitingTime="81.30" waitingCount="1" stopTime="0.00" timeLoss="93.60" rerouteNo="0" devices="tripinfo_E_S_10" vType="standard_car" speedFactor="1.09" vaporized=""/>
    <tripinfo id="E_S_34" depart="157.00" departLane="gneE0_3" departPos="3.10" departSpeed="10.00" departDelay="0.00" arrival="230.80" arrivalLane="-gneE3_1" arrivalPos="300.00" arrivalSpeed="13.79" duration="73.80" routeLength="629.96" waitingTime="17.20" waitingCount="1" stopTime="0.00" timeLoss="27.77" rerouteNo="0" devices="tripinfo_E_S_34" vType="standard_car" speedFactor="0.99" vaporized=""/>
    <tripinfo id="E_W_38" depart="168.00" departLane="gneE0_1" departPos="3.10" departSpeed="10.00" departDelay="0.00" arrival="230.80" arrivalLane="-gneE2_2" arrivalPos="300.00" arrivalSpeed="14.99" duration="62.80" routeLength="628.90" waitingTime="4.10" waitingCount="1" stopTime="0.00" timeLoss="20.79" rerouteNo="0" devices="tripinfo_E_W_38" vType="standard_car" speedFactor="1.10" vaporized=""/>
    <tripinfo id="E_W_42" depart="180.00" departLane="gneE0_3" departPos="3.10" departSpeed="10.00" departDelay="0.00" arrival="231.80" arrivalLane="-gneE2_3" arrivalPos="300.00" arrivalSpeed="14.99" duration="51.80" routeLength="628.90" waitingTime="0.00" waitingCount="0" stopTime="0.00" timeLoss="9.84" rerouteNo="0" devices="tripinfo_E_W_42" vType="standard_car" speedFactor="1.09" vaporized=""/>
    <tripinfo id="E_W_37" depart="166.00" departLane="gneE0_0" departPos="3.10" departSpeed="10.00" departDelay="0.00" arrival="232.00" arrivalLane="-gneE2_1" arrivalPos="300.00" arrivalSpeed="14.98" duration="66.00" routeLength="628.90" waitingTime="6.30" waitingCount="1" stopTime="0.00" timeLoss="24.06" rerouteNo="0" devices="tripinfo_E_W_37" vType="standard_car" speedFactor="1.18" vaporized=""/>
    <tripinfo id="E_W_29" depart="143.00" departLane="gneE0_1" departPos="3.10" departSpeed="10.00" departDelay="0.00" arrival="232.20" arrivalLane="-gneE2_0" arrivalPos="300.00" arrivalSpeed="12.92" duration="89.20" routeLength="628.90" waitingTime="30.10" waitingCount="1" stopTime="0.00" timeLoss="40.50" rerouteNo="0" devices="tripinfo_E_W_29" vType="standard_car" speedFactor="0.93" vaporized=""/>
    <tripinfo id="E_W_44" depart="183.00" departLane="gneE0_1" departPos="3.10" departSpeed="10.00" departDelay="0.00" arrival="233.50" arrivalLane="-gneE2_1" arrivalPos="300.00" arrivalSpeed="14.47" duration="50.50" routeLength="628.90" waitingTime="0.00" waitingCount="0" stopTime="0.00" timeLoss="7.07" rerouteNo="0" devices="tripinfo_E_W_44" vType="standard_car" speedFactor="1.04" vaporized=""/>
    <tripinfo id="E_S_47" depart="195.00" departLane="gneE0_0" departPos="3.10" departSpeed="10.00" departDelay="0.00" arrival="248.40" arrivalLane="-gneE3_1" arrivalPos="300.00" arrivalSpeed="12.49" duration="53.40" routeLength="629.96" waitingTime="0.00" waitingCount="0" stopTime="0.00" timeLoss="2.58" rerouteNo="0" devices="tripinfo_E_S_47" vType="standard_car" speedFactor="0.90" vaporized=""/>
    <tripinfo id="E_N_49" depart="200.00" departLane="gneE0_2" departPos="3.10" departSpeed="10.00" departDelay="0.00" arrival="255.20" arrivalLane="-gneE1_0" arrivalPos="300.00" arrivalSpeed="11.77" duration="55.20" routeLength="605.77" waitingTime="0.00" waitingCount="0" stopTime="0.00" timeLoss="2.98" rerouteNo="0" devices="tripinfo_E_N_49" vType="standard_car" speedFactor="0.85" vaporized=""/>
    <tripinfo id="S_E_52" depart="208.00" departLane="gneE3_3" departPos="3.10" departSpeed="10.00" departDelay="0.00" arrival="257.70" arrivalLane="-gneE0_0" arrivalPos="300.00" arrivalSpeed="14.11" duration="49.70" routeLength="605.77" waitingTime="0.00" waitingCount="0" stopTime="0.00" timeLoss="6.10" rerouteNo="0" devices="tripinfo_S_E_52" vType="standard_car" speedFactor="1.02" vaporized=""/>
    <tripinfo id="W_S_50" depart="205.00" departLane="gneE2_3" departPos="3.10" departSpeed="10.00" departDelay="0.00" arrival="259.90" arrivalLane="-gneE3_0" arrivalPos="300.00" arrivalSpeed="11.85" duration="54.90" routeLength="605.77" waitingTime="0.00" waitingCount="0" stopTime="0.00" timeLoss="2.96" rerouteNo="0" devices="tripinfo_W_S_50" vType="standard_car" speedFactor="0.85" vaporized=""/>
    <tripinfo id="W_N_28" depart="142.00" departLane="gneE2_3" departPos="3.10" departSpeed="10.00" departDelay="0.00" arrival="262.70" arrivalLane="-gneE1_2" arrivalPos="300.00" arrivalSpeed="14.99" duration="120.70" routeLength="625.12" waitingTime="66.30" waitingCount="1" stopTime="0.00" timeLoss="78.61" rerouteNo="0" devices="tripinfo_W_N_28" vType="standard_car" speedFactor="1.13" vaporized=""/>
    <tripinfo id="W_N_45" depart="190.00" departLane="gneE2_0" departPos="3.10" departSpeed="10.00" departDelay="0.00" arrival="263.90" arrivalLane="-gneE1_3" arrivalPos="300.00" arrivalSpeed="14.97" duration="73.90" routeLength="625.12" waitingTime="15.00" waitingCount="1" stopTime="0.00" timeLoss="31.70" rerouteNo="0" devices="tripinfo_W_N_45" vType="standard_car" speedFactor="1.09" vaporized=""/>
    <tripinfo id="W_E_14" depart="109.00" departLane="gneE2_3" departPos="3.10" departSpeed="10.00" departDelay="0.00" arrival="264.20" arrivalLane="-gneE0_0" arrivalPos="300.00" arrivalSpeed="13.76" duration="155.20" routeLength="628.90" waitingTime="98.10" waitingCount="1" stopTime="0.00" timeLoss="109.45" rerouteNo="0" devices="tripinfo_W_E_14" vType="standard_car" speedFactor="0.99" vaporized=""/>
    <tripinfo id="W_E_15" depart="112.00" departLane="gneE2_1" departPos="3.10" departSpeed="10.00" departDelay="0.00" arrival="265.00" arrivalLane="-gneE0_2" arrivalPos="300.00" arrivalSpeed="12.84" duration="153.00" routeLength="628.90" waitingTime="93.60" waitingCount="1" stopTime="0.00" timeLoss="104.12" rerouteNo="0" devices="tripinfo_W_E_15" vType="standard_car" speedFactor="0.93" vaporized=""/>
    <tripinfo id="E_N_57" depart="220.00" departLane="gneE0_1" departPos="3.10" departSpeed="10.00" departDelay="0.00" arrival="265.30" arrivalLane="-gneE1_0" arrivalPos="300.00" arrivalSpeed="15.00" duration="45.30" routeLength="605.77" waitingTime="0.00" waitingCount="0" stopTime="0.00" timeLoss="4.21" rerouteNo="0" devices="tripinfo_E_N_57" vType="standard_car" speedFactor="1.14" vaporized=""/>
    <tripinfo id="W_E_20" depart="129.00" departLane="gneE2_0" departPos="3.10" departSpeed="10.00" departDelay="0.00" arrival="265.40" arrivalLane="-gneE0_1" arrivalPos="300.00" arrivalSpeed="14.13" duration="136.40" routeLength="628.90" waitingTime="75.50" waitingCount="1" stopTime="0.00" timeLoss="91.87" rerouteNo="0" devices="tripinfo_W_E_20" vType="standard_car" speedFactor="1.02" vaporized=""/>
    <tripinfo id="W_E_33" depart="156.00" departLane="gneE2_3" departPos="3.10" departSpeed="10.00" departDelay="0.00" arrival="265.40" arrivalLane="-gneE0_3" arrivalPos="300.00" arrivalSpeed="14.98" duration="109.40" routeLength="628.90" waitingTime="49.80" waitingCount="1" stopTime="0.00" timeLoss="67.46" rerouteNo="0" devices="tripinfo_W_E_33" vType="standard_car" speedFactor="1.17" vaporized=""/>
    <tripinfo id="W_E_31" depart="152.00" departLane="gneE2_2" departPos="3.10" departSpeed="10.00" departDelay="0.00" arrival="266.30" arrivalLane="-gneE0_2" arrivalPos="300.00" arrivalSpeed="13.82" duration="114.30" routeLength="628.90" waitingTime="53.30" waitingCount="1" stopTime="0.00" timeLoss="72.33" rerouteNo="0" devices="tripinfo_W_E_31" vType="standard_car" speedFactor="1.15" vaporized=""/>
    <tripinfo id="W_S_59" depart="230.00" departLane="gneE2_2" departPos="3.10" departSpeed="10.00" departDelay="0.00" arrival="279.50" arrivalLane="-gneE3_0" arrivalPos="300.00" arrivalSpeed="13.46" duration="49.50" routeLength="605.77" waitingTime="0.00" waitingCount="0" stopTime="0.00" timeLoss="3.72" rerouteNo="0" devices="tripinfo_W_S_59" vType="standard_car" speedFactor="0.97" vaporized=""/>
    <tripinfo id="W_S_62" depart="232.00" departLane="gneE2_3" departPos="3.10" departSpeed="10.00" departDelay="0.00" arrival="280.80" arrivalLane="-gneE3_0" arrivalPos="300.00" arrivalSpeed="14.11" duration="48.80" routeLength="605.77" waitingTime="0.00" waitingCount="0" stopTime="0.00" timeLoss="5.10" rerouteNo="0" devices="tripinfo_W_S_62" vType="standard_car" speedFactor="1.02" vaporized=""/>
    <tripinfo id="W_N_64" depart="237.00" departLane="gneE2_0" departPos="3.10" departSpeed="10.00" departDelay="0.00" arrival="286.60" arrivalLane="-gneE1_2" arrivalPos="300.00" arrivalSpeed="13.02" duration="49.60" routeLength="625.12" waitingTime="0.00" waitingCount="0" stopTime="0.00" timeLoss="0.98" rerouteNo="0" devices="tripinfo_W_N_64" vType="standard_car" speedFactor="0.94" vaporized=""/>
    <tripinfo id="S_E_66" depart="239.00" departLane="gneE3_1" departPos="3.10" departSpeed="10.00" departDelay="0.00" arrival="291.40" arrivalLane="-gneE0_0" arrivalPos="300.00" arrivalSpeed="12.57" duration="52.40" routeLength="605.77" waitingTime="0.00" waitingCount="0" stopTime="0.00" timeLoss="3.43" rerouteNo="0" devices="tripinfo_S_E_66" vType="standard_car" speedFactor="0.91" vaporized=""/>
    <tripinfo id="N_E_43" depart="182.00" departLane="gneE1_3" departPos="3.10" departSpeed="10.00" departDelay="0.00" arrival="297.50" arrivalLane="-gneE0_3" arrivalPos="300.00" arrivalSpeed="14.41" duration="115.50" routeLength="625.12" waitingTime="55.60" waitingCount="1" stopTime="0.00" timeLoss="71.55" rerouteNo="0" devices="tripinfo_N_E_43" vType="standard_car" speedFactor="1.04" vaporized=""/>
    <tripinfo id="N_S_26" depart="141.00" departLane="gneE1_2" departPos="3.10" departSpeed="10.00" departDelay="0.00" arrival="298.40" arrivalLane="-gneE3_0" arrivalPos="300.00" arrivalSpeed="12.69" duration="157.40" routeLength="628.90" waitingTime="97.80" waitingCount="1" stopTime="0.00" timeLoss="107.99" rerouteNo="0" devices="tripinfo_N_S_26" vType="standard_car" speedFactor="0.92" vaporized=""/>
    <tripinfo id="N_E_39" depart="169.00" departLane="gneE1_3" departPos="3.10" departSpeed="10.00" departDelay="0.00" arrival="298.50" arrivalLane="-gneE0_1" arrivalPos="300.00" arrivalSpeed="12.50" duration="129.50" routeLength="625.12" waitingTime="69.40" waitingCount="1" stopTime="0.00" timeLoss="78.96" rerouteNo="0" devices="tripinfo_N_E_39" vType="standard_car" speedFactor="0.90" vaporized=""/>
    <tripinfo id="N_S_41" depart="173.00" departLane="gneE1_2" departPos="3.10" departSpeed="10.00" departDelay="0.00" arrival="298.80" arrivalLane="-gneE3_3" arrivalPos="300.00" arrivalSpeed="13.27" duration="125.80" routeLength="628.90" waitingTime="63.70" waitingCount="1" stopTime="0.00" timeLoss="78.48" rerouteNo="0" devices="tripinfo_N_S_41" vType="standard_car" speedFactor="0.96" vaporized=""/>
    <tripinfo id="N_S_32" depart="153.00" departLane="gneE1_0" departPos="3.10" departSpeed="10.00" departDelay="0.00" arrival="298.90" arrivalLane="-gneE3_1" arrivalPos="300.00" arrivalSpeed="13.95" duration="145.90" routeLength="628.90" waitingTime="84.40" waitingCount="1" stopTime="0.00" timeLoss="100.83" rerouteNo="0" devices="tripinfo_N_S_32" vType="standard_car" speedFactor="1.01" vaporized=""/>
    <tripinfo id="N_E_54" depart="216.00" departLane="gneE1_1" departPos="3.10" departSpeed="10.00" departDelay="0.00" arrival="299.10" arrivalLane="-gneE0_2" arrivalPos="300.00" arrivalSpeed="13.92" duration="83.10" routeLength="629.96" waitingTime="22.10" waitingCount="1" stopTime="0.00" timeLoss="37.47" rerouteNo="0" devices="tripinfo_N_E_54" vType="standard_car" speedFactor="1.00" vaporized=""/>
    <tripinfo id="E_N_69" depart="252.00" departLane="gneE0_1" departPos="3.10" departSpeed="10.00" departDelay="0.00" arrival="299.60" arrivalLane="-gneE1_0" arrivalPos="300.00" arrivalSpeed="14.16" duration="47.60" routeLength="605.77" waitingTime="0.00" waitingCount="0" stopTime="0.00" timeLoss="4.22" rerouteNo="0" devices="tripinfo_E_N_69" vType="standard_car" speedFactor="1.02" vaporized=""/>
    <tripinfo id="N_S_24" depart="140.00" departLane="gneE1_3" departPos="3.10" departSpeed="10.00" departDelay="0.00" arrival="300.20" arrivalLane="-gneE3_2" arrivalPos="300.00" arrivalSpeed="11.44" duration="160.20" routeLength="628.90" waitingTime="96.20" waitingCount="1" stopTime="0.00" timeLoss="105.37" rerouteNo="0" devices="tripinfo_N_S_24" vType="standard_car" speedFactor="0.83" vaporized=""/>
    <tripinfo id="N_S_55" depart="216.10" departLane="gneE1_3" departPos="3.10" departSpeed="10.00" departDelay="0.10" arrival="300.20" arrivalLane="-gneE3_1" arrivalPos="300.00" arrivalSpeed="13.80" duration="84.10" routeLength="628.90" waitingTime="18.80" waitingCount="1" stopTime="0.00" timeLoss="38.62" rerouteNo="0" devices="tripinfo_N_S_55" vType="standard_car" speedFactor="1.00" vaporized=""/>
    <tripinfo id="N_S_58" depart="225.00" departLane="gneE1_1" departPos="3.10" departSpeed="10.00" departDelay="0.00" arrival="300.30" arrivalLane="-gneE3_3" arrivalPos="300.00" arrivalSpeed="14.18" duration="75.30" routeLength="628.90" waitingTime="14.10" waitingCount="1" stopTime="0.00" timeLoss="31.05" rerouteNo="0" devices="tripinfo_N_S_58" vType="standard_car" speedFactor="1.02" vaporized=""/>
    <tripinfo id="W_S_70" depart="253.00" departLane="gneE2_3" departPos="3.10" departSpeed="10.00" departDelay="0.00" arrival="300.50" arrivalLane="-gneE3_0" arrivalPos="300.00" arrivalSpeed="14.21" duration="47.50" routeLength="605.77" waitingTime="0.00" waitingCount="0" stopTime="0.00" timeLoss="4.10" rerouteNo="0" devices="tripinfo_W_S_70" vType="standard_car" speedFactor="1.02" vaporized=""/>
    <tripinfo id="N_E_56" depart="217.00" departLane="gneE1_2" departPos="3.10" departSpeed="10.00" departDelay="0.00" arrival="301.00" arrivalLane="-gneE0_3" arrivalPos="300.00" arrivalSpeed="12.44" duration="84.00" routeLength="625.12" waitingTime="18.40" waitingCount="1" stopTime="0.00" timeLoss="33.33" rerouteNo="0" devices="tripinfo_N_E_56" vType="standard_car" speedFactor="0.90" vaporized=""/>
    <tripinfo id="N_S_73" depart="255.00" departLane="gneE1_2" departPos="3.10" departSpeed="10.00" departDelay="0.00" arrival="301.80" arrivalLane="-gneE3_2" arrivalPos="300.00" arrivalSpeed="13.93" duration="46.80" routeLength="628.90" waitingTime="0.00" waitingCount="0" stopTime="0.00" timeLoss="3.85" rerouteNo="0" devices="tripinfo_N_S_73" vType="standard_car" speedFactor="1.06" vaporized=""/>
    <tripinfo id="N_E_67" depart="248.00" departLane="gneE1_1" departPos="3.10" departSpeed="10.00" departDelay="0.00" arrival="301.90" arrivalLane="-gneE0_1" arrivalPos="300.00" arrivalSpeed="12.69" duration="53.90" routeLength="629.96" waitingTime="0.00" waitingCount="0" stopTime="0.00" timeLoss="3.82" rerouteNo="0" devices="tripinfo_N_E_67" vType="standard_car" speedFactor="0.91" vaporized=""/>
    <tripinfo id="N_E_60" depart="230.00" departLane="gneE1_3" departPos="3.10" departSpeed="10.00" departDelay="0.00" arrival="302.30" arrivalLane="-gneE0_3" arrivalPos="300.00" arrivalSpeed="13.45" duration="72.30" routeLength="625.12" waitingTime="9.90" waitingCount="1" stopTime="0.00" timeLoss="30.11" rerouteNo="0" devices="tripinfo_N_E_60" vType="standard_car" speedFactor="1.08" vaporized=""/>
    <tripinfo id="N_S_76" depart="268.00" departLane="gneE1_1" departPos="3.10" departSpeed="10.00" departDelay="0.00" arrival="312.80" arrivalLane="-gneE3_1" arrivalPos="300.00" arrivalSpeed="14.30" duration="44.80" routeLength="628.90" waitingTime="0.00" waitingCount="0" stopTime="0.00" timeLoss="0.89" rerouteNo="0" devices="tripinfo_N_S_76" vType="standard_car" speedFactor="1.03" vaporized=""/>
    <tripinfo id="N_E_74" depart="263.00" departLane="gneE1_3" departPos="3.10" departSpeed="10.00" departDelay="0.00" arrival="314.00" arrivalLane="-gneE0_1" arrivalPos="300.00" arrivalSpeed="13.25" duration="51.00" routeLength="629.96" waitingTime="0.00" waitingCount="0" stopTime="0.00" timeLoss="3.11" rerouteNo="0" devices="tripinfo_N_E_74" vType="standard_car" speedFactor="0.96" vaporized=""/>
    <tripinfo id="N_S_75" depart="268.00" departLane="gneE1_2" departPos="3.10" departSpeed="10.00" departDelay="0.00" arrival="314.70" arrivalLane="-gneE3_1" arrivalPos="300.00" arrivalSpeed="13.66" duration="46.70" routeLength="628.90" waitingTime="0.00" waitingCount="0" stopTime="0.00" timeLoss="0.73" rerouteNo="0" devices="tripinfo_N_S_75" vType="standard_car" speedFactor="0.98" vaporized=""/>
    <tripinfo id="S_E_79" depart="274.00" departLane="gneE3_1" departPos="3.10" departSpeed="10.00" departDelay="0.00" arrival="319.60" arrivalLane="-gneE0_0" arrivalPos="300.00" arrivalSpeed="14.97" duration="45.60" routeLength="605.77" waitingTime="0.00" waitingCount="0" stopTime="0.00" timeLoss="4.51" rerouteNo="0" devices="tripinfo_S_E_79" vType="standard_car" speedFactor="1.09" vaporized=""/>
    <tripinfo id="S_E_80" depart="276.00" departLane="gneE3_2" departPos="3.10" departSpeed="10.00" departDelay="0.00" arrival="323.40" arrivalLane="-gneE0_0" arrivalPos="300.00" arrivalSpeed="14.36" duration="47.40" routeLength="605.77" waitingTime="0.00" waitingCount="0" stopTime="0.00" timeLoss="4.55" rerouteNo="0" devices="tripinfo_S_E_80" vType="standard_car" speedFactor="1.03" vaporized=""/>
    <tripinfo id="N_W_84" depart="283.00" departLane="gneE1_3" departPos="3.10" departSpeed="10.00" departDelay="0.00" arrival="328.20" arrivalLane="-gneE2_0" arrivalPos="300.00" arrivalSpeed="14.96" duration="45.20" routeLength="605.77" waitingTime="0.00" waitingCount="0" stopTime="0.00" timeLoss="4.21" rerouteNo="0" devices="tripinfo_N_W_84" vType="standard_car" speedFactor="1.15" vaporized=""/>
    <tripinfo id="S_W_51" depart="206.00" departLane="gneE3_1" departPos="3.10" departSpeed="10.00" departDelay="0.00" arrival="328.80" arrivalLane="-gneE2_2" arrivalPos="300.00" arrivalSpeed="14.97" duration="122.80" routeLength="625.12" waitingTime="67.90" waitingCount="1" stopTime="0.00" timeLoss="80.77" rerouteNo="0" devices="tripinfo_S_W_51" vType="standard_car" speedFactor="1.17" vaporized=""/>
    <tripinfo id="S_N_46" depart="194.00" departLane="gneE3_1" departPos="3.10" departSpeed="10.00" departDelay="0.00" arrival="329.80" arrivalLane="-gneE1_0" arrivalPos="300.00" arrivalSpeed="13.84" duration="135.80" routeLength="628.90" waitingTime="79.20" waitingCount="1" stopTime="0.00" timeLoss="90.38" rerouteNo="0" devices="tripinfo_S_N_46" vType="standard_car" speedFactor="1.00" vaporized=""/>