<?xml version="1.0" encoding="UTF-8"?>

<!-- generated on 2022-01-10 09:18:47 by Eclipse SUMO sumo Version 1.10.0
<configuration xmlns:xsi="http://www.w3.org/2001/XMLSchema-instance" xsi:noNamespaceSchemaLocation="http://sumo.dlr.de/xsd/sumoConfiguration.xsd">

    <input>
        <net-file value="../DQN/unbalance_net/net1.net.xml"/>
        <route-files value="../DQN/unbalance_net/high_net_3000.rou.xml"/>
    </input>

    <output>
        <tripinfo-output value="tripinfo.xml"/>
    </output>

    <time>
        <begin value="0"/>
    </time>

    <traci_server>
        <remote-port value="51587"/>
    </traci_server>

    <gui_only>
        <quit-on-end value="true"/>
        <start value="true"/>
    </gui_only>

</configuration>
-->

<tripinfos xmlns:xsi="http://www.w3.org/2001/XMLSchema-instance" xsi:noNamespaceSchemaLocation="http://sumo.dlr.de/xsd/tripinfo_file.xsd">
    <tripinfo id="W_E_1" depart="43.00" departLane="gneE2_1" departPos="3.10" departSpeed="10.00" departDelay="0.00" arrival="93.00" arrivalLane="-gneE0_0" arrivalPos="300.00" arrivalSpeed="12.93" duration="50.00" routeLength="628.90" waitingTime="0.00" waitingCount="0" stopTime="0.00" timeLoss="1.28" rerouteNo="0" devices="tripinfo_W_E_1" vType="standard_car" speedFactor="0.94" vaporized=""/>
    <tripinfo id="W_E_6" depart="73.00" departLane="gneE2_0" departPos="3.10" departSpeed="10.00" departDelay="0.00" arrival="118.00" arrivalLane="-gneE0_1" arrivalPos="300.00" arrivalSpeed="14.42" duration="45.00" routeLength="628.90" waitingTime="0.00" waitingCount="0" stopTime="0.00" timeLoss="1.52" rerouteNo="0" devices="tripinfo_W_E_6" vType="standard_car" speedFactor="1.05" vaporized=""/>
    <tripinfo id="W_N_2" depart="50.00" departLane="gneE2_3" departPos="3.10" departSpeed="10.00" departDelay="0.00" arrival="135.00" arrivalLane="-gneE1_1" arrivalPos="300.00" arrivalSpeed="13.70" duration="85.00" routeLength="629.96" waitingTime="27.00" waitingCount="1" stopTime="0.00" timeLoss="39.54" rerouteNo="0" devices="tripinfo_W_N_2" vType="standard_car" speedFactor="1.01" vaporized=""/>
    <tripinfo id="E_S_11" depart="142.00" departLane="gneE0_1" departPos="3.10" departSpeed="10.00" departDelay="0.00" arrival="189.00" arrivalLane="-gneE3_2" arrivalPos="300.00" arrivalSpeed="14.25" duration="47.00" routeLength="629.96" waitingTime="0.00" waitingCount="0" stopTime="0.00" timeLoss="1.63" rerouteNo="0" devices="tripinfo_E_S_11" vType="standard_car" speedFactor="1.03" vaporized=""/>
    <tripinfo id="E_S_17" depart="171.00" departLane="gneE0_0" departPos="3.10" departSpeed="10.00" departDelay="0.00" arrival="224.00" arrivalLane="-gneE3_1" arrivalPos="300.00" arrivalSpeed="12.61" duration="53.00" routeLength="629.96" waitingTime="0.00" waitingCount="0" stopTime="0.00" timeLoss="3.90" rerouteNo="0" devices="tripinfo_E_S_17" vType="standard_car" speedFactor="0.94" vaporized=""/>
    <tripinfo id="E_N_16" depart="171.00" departLane="gneE0_2" departPos="3.10" departSpeed="10.00" departDelay="0.00" arrival="226.00" arrivalLane="-gneE1_0" arrivalPos="300.00" arrivalSpeed="12.01" duration="55.00" routeLength="605.77" waitingTime="0.00" waitingCount="0" stopTime="0.00" timeLoss="3.85" rerouteNo="0" devices="tripinfo_E_N_16" vType="standard_car" speedFactor="0.88" vaporized=""/>
    <tripinfo id="E_S_25" depart="205.00" departLane="gneE0_2" departPos="3.10" departSpeed="10.00" departDelay="0.00" arrival="259.00" arrivalLane="-gneE3_1" arrivalPos="300.00" arrivalSpeed="11.68" duration="54.00" routeLength="629.96" waitingTime="0.00" waitingCount="0" stopTime="0.00" timeLoss="1.36" rerouteNo="0" devices="tripinfo_E_S_25" vType="standard_car" speedFactor="0.87" vaporized=""/>
    <tripinfo id="E_S_28" depart="219.00" departLane="gneE0_1" departPos="3.10" departSpeed="10.00" departDelay="0.00" arrival="263.00" arrivalLane="-gneE3_2" arrivalPos="300.00" arrivalSpeed="14.87" duration="44.00" routeLength="629.96" waitingTime="0.00" waitingCount="0" stopTime="0.00" timeLoss="1.68" rerouteNo="0" devices="tripinfo_E_S_28" vType="standard_car" speedFactor="1.13" vaporized=""/>
    <tripinfo id="N_W_33" depart="242.00" departLane="gneE1_0" departPos="3.10" departSpeed="10.00" departDelay="1.00" arrival="288.00" arrivalLane="-gneE2_0" arrivalPos="300.00" arrivalSpeed="14.85" duration="46.00" routeLength="605.77" waitingTime="0.00" waitingCount="0" stopTime="0.00" timeLoss="4.70" rerouteNo="0" devices="tripinfo_N_W_33" vType="standard_car" speedFactor="1.17" vaporized=""/>
    <tripinfo id="N_S_18" depart="172.00" departLane="gneE1_3" departPos="3.10" departSpeed="10.00" departDelay="0.00" arrival="301.00" arrivalLane="-gneE3_0" arrivalPos="300.00" arrivalSpeed="12.86" duration="129.00" routeLength="628.90" waitingTime="69.00" waitingCount="1" stopTime="0.00" timeLoss="80.06" rerouteNo="0" devices="tripinfo_N_S_18" vType="standard_car" speedFactor="0.94" vaporized=""/>
    <tripinfo id="N_S_34" depart="243.00" departLane="gneE1_2" departPos="3.10" departSpeed="10.00" departDelay="0.00" arrival="302.00" arrivalLane="-gneE3_1" arrivalPos="300.00" arrivalSpeed="13.60" duration="59.00" routeLength="628.90" waitingTime="0.00" waitingCount="0" stopTime="0.00" timeLoss="13.20" rerouteNo="0" devices="tripinfo_N_S_34" vType="standard_car" speedFactor="0.99" vaporized=""/>
    <tripinfo id="S_N_14" depart="166.00" departLane="gneE3_1" departPos="3.10" departSpeed="10.00" departDelay="1.00" arrival="303.00" arrivalLane="-gneE1_1" arrivalPos="300.00" arrivalSpeed="13.52" duration="137.00" routeLength="628.90" waitingTime="78.00" waitingCount="1" stopTime="0.00" timeLoss="91.24" rerouteNo="0" devices="tripinfo_S_N_14" vType="standard_car" speedFactor="0.99" vaporized=""/>
    <tripinfo id="S_N_5" depart="72.00" departLane="gneE3_2" departPos="3.10" departSpeed="10.00" departDelay="0.00" arrival="304.00" arrivalLane="-gneE1_0" arrivalPos="300.00" arrivalSpeed="11.49" duration="232.00" routeLength="628.90" waitingTime="167.00" waitingCount="1" stopTime="0.00" timeLoss="177.46" rerouteNo="0" devices="tripinfo_S_N_5" vType="standard_car" speedFactor="0.83" vaporized=""/>
    <tripinfo id="S_N_19" depart="179.00" departLane="gneE3_0" departPos="3.10" departSpeed="10.00" departDelay="0.00" arrival="304.00" arrivalLane="-gneE1_2" arrivalPos="300.00" arrivalSpeed="14.58" duration="125.00" routeLength="628.90" waitingTime="68.00" waitingCount="1" stopTime="0.00" timeLoss="82.68" rerouteNo="0" devices="tripinfo_S_N_19" vType="standard_car" speedFactor="1.16" vaporized=""/>
    <tripinfo id="S_N_22" depart="196.00" departLane="gneE3_0" departPos="3.10" departSpeed="10.00" departDelay="0.00" arrival="306.00" arrivalLane="-gneE1_1" arrivalPos="300.00" arrivalSpeed="13.47" duration="110.00" routeLength="628.90" waitingTime="50.00" waitingCount="1" stopTime="0.00" timeLoss="63.48" rerouteNo="0" devices="tripinfo_S_N_22" vType="standard_car" speedFactor="0.98" vaporized=""/>
    <tripinfo id="S_N_35" depart="251.00" departLane="gneE3_0" departPos="3.10" departSpeed="10.00" departDelay="0.00" arrival="308.00" arrivalLane="-gneE1_1" arrivalPos="300.00" arrivalSpeed="13.88" duration="57.00" routeLength="628.90" waitingTime="0.00" waitingCount="0" stopTime="0.00" timeLoss="11.89" rerouteNo="0" devices="tripinfo_S_N_35" vType="standard_car" speedFactor="1.02" vaporized=""/>
    <tripinfo id="S_N_13" depart="165.00" departLane="gneE3_3" departPos="3.10" departSpeed="10.00" departDelay="1.00" arrival="312.00" arrivalLane="-gneE1_1" arrivalPos="300.00" arrivalSpeed="14.64" duration="147.00" routeLength="628.90" waitingTime="91.00" waitingCount="1" stopTime="0.00" timeLoss="105.05" rerouteNo="0" devices="tripinfo_S_N_13" vType="standard_car" speedFactor="1.12" vaporized=""/>
    <tripinfo id="N_S_43" depart="274.00" departLane="gneE1_0" departPos="3.10" departSpeed="10.00" departDelay="0.00" arrival="320.00" arrivalLane="-gneE3_1" arrivalPos="300.00" arrivalSpeed="14.03" duration="46.00" routeLength="628.90" waitingTime="0.00" waitingCount="0" stopTime="0.00" timeLoss="1.57" rerouteNo="0" devices="tripinfo_N_S_43" vType="standard_car" speedFactor="1.04" vaporized=""/>
    <tripinfo id="N_S_44" depart="276.00" departLane="gneE1_1" departPos="3.10" departSpeed="10.00" departDelay="0.00" arrival="321.00" arrivalLane="-gneE3_1" arrivalPos="300.00" arrivalSpeed="14.19" duration="45.00" routeLength="628.90" waitingTime="0.00" waitingCount="0" stopTime="0.00" timeLoss="1.45" rerouteNo="0" devices="tripinfo_N_S_44" vType="standard_car" speedFactor="1.04" vaporized=""/>
    <tripinfo id="W_N_40" depart="268.00" departLane="gneE2_3" departPos="3.10" departSpeed="10.00" departDelay="0.00" arrival="332.00" arrivalLane="-gneE1_2" arrivalPos="300.00" arrivalSpeed="14.27" duration="64.00" routeLength="625.12" waitingTime="9.00" waitingCount="1" stopTime="0.00" timeLoss="19.71" rerouteNo="0" devices="tripinfo_W_N_40" vType="standard_car" speedFactor="1.03" vaporized=""/>
    <tripinfo id="E_S_37" depart="259.00" departLane="gneE0_3" departPos="3.10" departSpeed="10.00" departDelay="0.00" arrival="333.00" arrivalLane="-gneE3_2" arrivalPos="300.00" arrivalSpeed="14.66" duration="74.00" routeLength="629.96" waitingTime="16.00" waitingCount="1" stopTime="0.00" timeLoss="30.91" rerouteNo="0" devices="tripinfo_E_S_37" vType="standard_car" speedFactor="1.18" vaporized=""/>
    <tripinfo id="W_N_39" depart="266.00" departLane="gneE2_2" departPos="3.10" departSpeed="10.00" departDelay="0.00" arrival="338.00" arrivalLane="-gneE1_2" arrivalPos="300.00" arrivalSpeed="12.43" duration="72.00" routeLength="625.12" waitingTime="11.00" waitingCount="1" stopTime="0.00" timeLoss="20.82" rerouteNo="0" devices="tripinfo_W_N_39" vType="standard_car" speedFactor="0.90" vaporized=""/>
    <tripinfo id="E_S_51" depart="300.00" departLane="gneE0_2" departPos="3.10" departSpeed="10.00" departDelay="0.00" arrival="344.00" arrivalLane="-gneE3_3" arrivalPos="300.00" arrivalSpeed="14.75" duration="44.00" routeLength="625.12" waitingTime="0.00" waitingCount="0" stopTime="0.00" timeLoss="1.71" rerouteNo="0" devices="tripinfo_E_S_51" vType="standard_car" speedFactor="1.17" vaporized=""/>
    <tripinfo id="W_N_48" depart="293.00" departLane="gneE2_3" departPos="3.10" departSpeed="10.00" departDelay="0.00" arrival="347.00" arrivalLane="-gneE1_1" arrivalPos="300.00" arrivalSpeed="11.76" duration="54.00" routeLength="625.12" waitingTime="0.00" waitingCount="0" stopTime="0.00" timeLoss="1.70" rerouteNo="0" devices="tripinfo_W_N_48" vType="standard_car" speedFactor="0.88" vaporized=""/>
    <tripinfo id="E_S_52" depart="301.00" departLane="gneE0_1" departPos="3.10" departSpeed="10.00" departDelay="0.00" arrival="349.00" arrivalLane="-gneE3_3" arrivalPos="300.00" arrivalSpeed="14.07" duration="48.00" routeLength="625.12" waitingTime="0.00" waitingCount="0" stopTime="0.00" timeLoss="2.35" rerouteNo="0" devices="tripinfo_E_S_52" vType="standard_car" speedFactor="1.02" vaporized=""/>
    <tripinfo id="W_N_54" depart="307.00" departLane="gneE2_3" departPos="3.10" departSpeed="10.00" departDelay="0.00" arrival="355.00" arrivalLane="-gneE1_2" arrivalPos="300.00" arrivalSpeed="13.91" duration="48.00" routeLength="625.12" waitingTime="0.00" waitingCount="0" stopTime="0.00" timeLoss="1.83" rerouteNo="0" devices="tripinfo_W_N_54" vType="standard_car" speedFactor="1.00" vaporized=""/>
    <tripinfo id="W_S_55" depart="309.00" departLane="gneE2_2" departPos="3.10" departSpeed="10.00" departDelay="0.00" arrival="359.00" arrivalLane="-gneE3_0" arrivalPos="300.00" arrivalSpeed="13.68" duration="50.00" routeLength="605.77" waitingTime="0.00" waitingCount="0" stopTime="0.00" timeLoss="4.83" rerouteNo="0" devices="tripinfo_W_S_55" vType="standard_car" speedFactor="1.00" vaporized=""/>
    <tripinfo id="N_S_45" depart="280.00" departLane="gneE1_0" departPos="3.10" departSpeed="10.00" departDelay="0.00" arrival="366.00" arrivalLane="-gneE3_1" arrivalPos="300.00" arrivalSpeed="14.65" duration="86.00" routeLength="628.90" waitingTime="30.00" waitingCount="1" stopTime="0.00" timeLoss="43.54" rerouteNo="0" devices="tripinfo_N_S_45" vType="standard_car" speedFactor="1.09" vaporized=""/>
    <tripinfo id="N_S_47" depart="289.00" departLane="gneE1_2" departPos="3.10" departSpeed="10.00" departDelay="0.00" arrival="371.00" arrivalLane="-gneE3_0" arrivalPos="300.00" arrivalSpeed="12.48" duration="82.00" routeLength="628.90" waitingTime="18.00" waitingCount="1" stopTime="0.00" timeLoss="30.87" rerouteNo="0" devices="tripinfo_N_S_47" vType="standard_car" speedFactor="0.90" vaporized=""/>
    <tripinfo id="N_S_57" depart="313.00" departLane="gneE1_1" departPos="3.10" departSpeed="10.00" departDelay="0.00" arrival="371.00" arrivalLane="-gneE3_1" arrivalPos="300.00" arrivalSpeed="14.81" duration="58.00" routeLength="628.90" waitingTime="1.00" waitingCount="1" stopTime="0.00" timeLoss="15.66" rerouteNo="0" devices="tripinfo_N_S_57" vType="standard_car" speedFactor="1.14" vaporized=""/>
    <tripinfo id="N_S_49" depart="294.00" departLane="gneE1_1" departPos="3.10" departSpeed="10.00" departDelay="0.00" arrival="373.00" arrivalLane="-gneE3_0" arrivalPos="300.00" arrivalSpeed="11.32" duration="79.00" routeLength="628.90" waitingTime="15.00" waitingCount="1" stopTime="0.00" timeLoss="25.63" rerouteNo="0" devices="tripinfo_N_S_49" vType="standard_car" speedFactor="0.85" vaporized=""/>
    <tripinfo id="W_S_60" depart="326.00" departLane="gneE2_3" departPos="3.10" departSpeed="10.00" departDelay="0.00" arrival="373.00" arrivalLane="-gneE3_1" arrivalPos="300.00" arrivalSpeed="14.94" duration="47.00" routeLength="605.77" waitingTime="0.00" waitingCount="0" stopTime="0.00" timeLoss="5.20" rerouteNo="0" devices="tripinfo_W_S_60" vType="standard_car" speedFactor="1.08" vaporized=""/>
    <tripinfo id="S_W_0" depart="41.00" departLane="gneE3_2" departPos="3.10" departSpeed="10.00" departDelay="0.00" arrival="387.00" arrivalLane="-gneE2_0" arrivalPos="300.00" arrivalSpeed="14.42" duration="346.00" routeLength="596.90" waitingTime="301.00" waitingCount="1" stopTime="0.00" timeLoss="305.20" rerouteNo="0" devices="tripinfo_S_W_0" vType="standard_car" speedFactor="1.06" vaporized=""/>
    <tripinfo id="N_E_3" depart="54.00" departLane="gneE1_3" departPos="3.10" departSpeed="10.00" departDelay="0.00" arrival="398.00" arrivalLane="-gneE0_2" arrivalPos="300.00" arrivalSpeed="14.55" duration="344.00" routeLength="629.96" waitingTime="289.00" waitingCount="1" stopTime="0.00" timeLoss="301.39" rerouteNo="0" devices="tripinfo_N_E_3" vType="standard_car" speedFactor="1.08" vaporized=""/>
    <tripinfo id="S_W_4" depart="69.00" departLane="gneE3_3" departPos="3.10" departSpeed="10.00" departDelay="0.00" arrival="399.00" arrivalLane="-gneE2_2" arrivalPos="300.00" arrivalSpeed="14.22" duration="330.00" routeLength="625.12" waitingTime="273.00" waitingCount="1" stopTime="0.00" timeLoss="285.48" rerouteNo="0" devices="tripinfo_S_W_4" vType="standard_car" speedFactor="1.03" vaporized=""/>
    <tripinfo id="S_E_66" depart="346.00" departLane="gneE3_1" departPos="3.10" departSpeed="10.00" departDelay="0.00" arrival="399.00" arrivalLane="-gneE0_0" arrivalPos="300.00" arrivalSpeed="12.13" duration="53.00" routeLength="605.77" waitingTime="0.00" waitingCount="0" stopTime="0.00" timeLoss="3.79" rerouteNo="0" devices="tripinfo_S_E_66" vType="standard_car" speedFactor="0.91" vaporized=""/>
    <tripinfo id="N_E_10" depart="141.00" departLane="gneE1_3" departPos="3.10" departSpeed="10.00" departDelay="0.00" arrival="400.00" arrivalLane="-gneE0_3" arrivalPos="300.00" arrivalSpeed="14.59" duration="259.00" routeLength="625.12" waitingTime="203.00" waitingCount="1" stopTime="0.00" timeLoss="216.68" rerouteNo="0" devices="tripinfo_N_E_10" vType="standard_car" speedFactor="1.09" vaporized=""/>
    <tripinfo id="N_E_7" depart="100.00" departLane="gneE1_2" departPos="3.10" departSpeed="10.00" departDelay="0.00" arrival="401.00" arrivalLane="-gneE0_2" arrivalPos="300.00" arrivalSpeed="11.86" duration="301.00" routeLength="625.12" waitingTime="239.00" waitingCount="1" stopTime="0.00" timeLoss="249.57" rerouteNo="0" devices="tripinfo_N_E_7" vType="standard_car" speedFactor="0.89" vaporized=""/>
    <tripinfo id="S_W_8" depart="113.00" departLane="gneE3_1" departPos="3.10" departSpeed="10.00" departDelay="0.00" arrival="401.00" arrivalLane="-gneE2_1" arrivalPos="300.00" arrivalSpeed="12.72" duration="288.00" routeLength="629.96" waitingTime="227.00" waitingCount="1" stopTime="0.00" timeLoss="239.17" rerouteNo="0" devices="tripinfo_S_W_8" vType="standard_car" speedFactor="0.94" vaporized=""/>
    <tripinfo id="S_W_12" depart="163.00" departLane="gneE3_1" departPos="3.10" departSpeed="10.00" departDelay="0.00" arrival="401.00" arrivalLane="-gneE2_3" arrivalPos="300.00" arrivalSpeed="14.19" duration="238.00" routeLength="625.12" waitingTime="177.00" waitingCount="1" stopTime="0.00" timeLoss="194.49" rerouteNo="0" devices="tripinfo_S_W_12" vType="standard_car" speedFactor="1.05" vaporized=""/>
    <tripinfo id="S_W_20" depart="181.00" departLane="gneE3_0" departPos="3.10" departSpeed="10.00" departDelay="0.00" arrival="402.00" arrivalLane="-gneE2_2" arrivalPos="300.00" arrivalSpeed="13.76" duration="221.00" routeLength="629.96" waitingTime="156.00" waitingCount="2" stopTime="0.00" timeLoss="175.66" rerouteNo="0" devices="tripinfo_S_W_20" vType="standard_car" speedFactor="1.02" vaporized=""/>
    <tripinfo id="N_E_27" depart="219.00" departLane="gneE1_3" departPos="3.10" departSpeed="10.00" departDelay="0.00" arrival="404.00" arrivalLane="-gneE0_2" arrivalPos="300.00" arrivalSpeed="12.85" duration="185.00" routeLength="629.96" waitingTime="121.00" waitingCount="2" stopTime="0.00" timeLoss="136.67" rerouteNo="0" devices="tripinfo_N_E_27" vType="standard_car" speedFactor="0.95" vaporized=""/>
    <tripinfo id="S_W_15" depart="168.00" departLane="gneE3_3" departPos="3.10" departSpeed="10.00" departDelay="0.00" arrival="405.00" arrivalLane="-gneE2_3" arrivalPos="300.00" arrivalSpeed="12.47" duration="237.00" routeLength="625.12" waitingTime="174.00" waitingCount="1" stopTime="0.00" timeLoss="187.14" rerouteNo="0" devices="tripinfo_S_W_15" vType="standard_car" speedFactor="0.93" vaporized=""/>
    <tripinfo id="N_E_23" depart="197.00" departLane="gneE1_3" departPos="3.10" departSpeed="10.00" departDelay="0.00" arrival="405.00" arrivalLane="-gneE0_3" arrivalPos="300.00" arrivalSpeed="12.17" duration="208.00" routeLength="625.12" waitingTime="145.00" waitingCount="1" stopTime="0.00" timeLoss="156.12" rerouteNo="0" devices="tripinfo_N_E_23" vType="standard_car" speedFactor="0.89" vaporized=""/>
    <tripinfo id="N_E_24" depart="197.00" departLane="gneE1_1" departPos="3.10" departSpeed="10.00" departDelay="0.00" arrival="405.00" arrivalLane="-gneE0_0" arrivalPos="300.00" arrivalSpeed="11.09" duration="208.00" routeLength="629.96" waitingTime="142.00" waitingCount="1" stopTime="0.00" timeLoss="152.19" rerouteNo="0" devices="tripinfo_N_E_24" vType="standard_car" speedFactor="0.83" vaporized=""/>
    <tripinfo id="S_W_26" depart="216.00" departLane="gneE3_0" departPos="3.10" departSpeed="10.00" departDelay="0.00" arrival="405.00" arrivalLane="-gneE2_1" arrivalPos="300.00" arrivalSpeed="12.39" duration="189.00" routeLength="629.96" waitingTime="122.00" waitingCount="2" stopTime="0.00" timeLoss="138.32" rerouteNo="0" devices="tripinfo_S_W_26" vType="standard_car" speedFactor="0.92" vaporized=""/>
    <tripinfo id="S_W_31" depart="240.00" departLane="gneE3_0" departPos="3.10" departSpeed="10.00" departDelay="0.00" arrival="405.00" arrivalLane="-gneE2_2" arrivalPos="300.00" arrivalSpeed="14.60" duration="165.00" routeLength="629.96" waitingTime="101.00" waitingCount="2" stopTime="0.00" timeLoss="121.98" rerouteNo="0" devices="tripinfo_S_W_31" vType="standard_car" speedFactor="1.15" vaporized=""/>
    <tripinfo id="S_W_21" depart="191.00" departLane="gneE3_2" departPos="3.10" departSpeed="10.00" departDelay="0.00" arrival="406.00" arrivalLane="-gneE2_3" arrivalPos="300.00" arrivalSpeed="13.47" duration="215.00" routeLength="625.12" waitingTime="152.00" waitingCount="1" stopTime="0.00" timeLoss="169.49" rerouteNo="0" devices="tripinfo_S_W_21" vType="standard_car" speedFactor="1.01" vaporized=""/>
    <tripinfo id="N_E_29" depart="232.00" departLane="gneE1_1" departPos="3.10" departSpeed="10.00" departDelay="0.00" arrival="406.00" arrivalLane="-gneE0_2" arrivalPos="300.00" arrivalSpeed="12.48" duration="174.00" routeLength="629.96" waitingTime="112.00" waitingCount="1" stopTime="0.00" timeLoss="124.50" rerouteNo="0" devices="tripinfo_N_E_29" vType="standard_car" speedFactor="0.93" vaporized=""/>
    <tripinfo id="N_E_32" depart="240.00" departLane="gneE1_3" departPos="3.10" departSpeed="10.00" departDelay="0.00" arrival="406.00" arrivalLane="-gneE0_3" arrivalPos="300.00" arrivalSpeed="12.94" duration="166.00" routeLength="625.12" waitingTime="104.00" waitingCount="1" stopTime="0.00" timeLoss="120.48" rerouteNo="0" devices="tripinfo_N_E_32" vType="standard_car" speedFactor="1.01" vaporized=""/>
    <tripinfo id="S_W_30" depart="234.00" departLane="gneE3_2" departPos="3.10" departSpeed="10.00" departDelay="0.00" arrival="407.00" arrivalLane="-gneE2_3" arrivalPos="300.00" arrivalSpeed="13.83" duration="173.00" routeLength="625.12" waitingTime="111.00" waitingCount="1" stopTime="0.00" timeLoss="130.97" rerouteNo="0" devices="tripinfo_S_W_30" vType="standard_car" speedFactor="1.18" vaporized=""/>
    <tripinfo id="S_W_46" depart="287.00" departLane="gneE3_2" departPos="3.10" departSpeed="10.00" departDelay="0.00" arrival="407.00" arrivalLane="-gneE2_2" arrivalPos="300.00" arrivalSpeed="13.37" duration="120.00" routeLength="629.96" waitingTime="60.00" waitingCount="1" stopTime="0.00" timeLoss="73.28" rerouteNo="0" devices="tripinfo_S_W_46" vType="standard_car" speedFactor="1.00" vaporized=""/>
    <tripinfo id="N_E_53" depart="302.00" departLane="gneE1_1" departPos="3.10" departSpeed="10.00" departDelay="0.00" arrival="407.00" arrivalLane="-gneE0_2" arrivalPos="300.00" arrivalSpeed="13.33" duration="105.00" routeLength="629.96" waitingTime="45.00" waitingCount="1" stopTime="0.00" timeLoss="62.59" rerouteNo="0" devices="tripinfo_N_E_53" vType="standard_car" speedFactor="1.10" vaporized=""/>
    <tripinfo id="N_E_71" depart="349.00" departLane="gneE1_0" departPos="3.10" departSpeed="10.00" departDelay="0.00" arrival="407.00" arrivalLane="-gneE0_3" arrivalPos="300.00" arrivalSpeed="13.26" duration="58.00" routeLength="625.12" waitingTime="0.00" waitingCount="0" stopTime="0.00" timeLoss="11.13" rerouteNo="0" devices="tripinfo_N_E_71" vType="standard_car" speedFactor="0.97" vaporized=""/>
    <tripinfo id="S_W_63" depart="335.00" departLane="gneE3_0" departPos="3.10" departSpeed="10.00" departDelay="0.00" arrival="408.00" arrivalLane="-gneE2_1" arrivalPos="300.00" arrivalSpeed="13.45" duration="73.00" routeLength="629.96" waitingTime="12.00" waitingCount="1" stopTime="0.00" timeLoss="26.44" rerouteNo="0" devices="tripinfo_S_W_63" vType="standard_car" speedFactor="0.99" vaporized=""/>
    <tripinfo id="S_W_50" depart="297.00" departLane="gneE3_3" departPos="3.10" departSpeed="10.00" departDelay="0.00" arrival="411.00" arrivalLane="-gneE2_2" arrivalPos="300.00" arrivalSpeed="11.85" duration="114.00" routeLength="625.12" waitingTime="47.00" waitingCount="1" stopTime="0.00" timeLoss="60.22" rerouteNo="0" devices="tripinfo_S_W_50" vType="standard_car" speedFactor="0.85" vaporized=""/>
    <tripinfo id="S_W_64" depart="341.00" departLane="gneE3_1" departPos="3.10" departSpeed="10.00" departDelay="0.00" arrival="412.00" arrivalLane="-gneE2_3" arrivalPos="300.00" arrivalSpeed="12.72" duration="71.00" routeLength="625.12" waitingTime="6.00" waitingCount="1" stopTime="0.00" timeLoss="21.96" rerouteNo="0" devices="tripinfo_S_W_64" vType="standard_car" speedFactor="0.94" vaporized=""/>
    <tripinfo id="W_S_75" depart="362.00" departLane="gneE2_1" departPos="3.10" departSpeed="10.00" departDelay="0.00" arrival="412.00" arrivalLane="-gneE3_0" arrivalPos="300.00" arrivalSpeed="13.36" duration="50.00" routeLength="605.77" waitingTime="0.00" waitingCount="0" stopTime="0.00" timeLoss="4.99" rerouteNo="0" devices="tripinfo_W_S_75" vType="standard_car" speedFactor="0.98" vaporized=""/>
    <tripinfo id="N_E_77" depart="363.00" departLane="gneE1_2" departPos="3.10" departSpeed="10.00" departDelay="0.00" arrival="412.00" arrivalLane="-gneE0_1" arrivalPos="300.00" arrivalSpeed="13.58" duration="49.00" routeLength="629.96" waitingTime="0.00" waitingCount="0" stopTime="0.00" timeLoss="1.57" rerouteNo="0" devices="tripinfo_N_E_77" vType="standard_car" speedFactor="0.98" vaporized=""/>
    <tripinfo id="N_E_78" depart="368.00" departLane="gneE1_1" departPos="3.10" departSpeed="10.00" departDelay="0.00" arrival="415.00" arrivalLane="-gneE0_2" arrivalPos="300.00" arrivalSpeed="13.70" duration="47.00" routeLength="629.96" waitingTime="0.00" waitingCount="0" stopTime="0.00" timeLoss="1.60" rerouteNo="0" devices="tripinfo_N_E_78" vType="standard_car" speedFactor="1.01" vaporized=""/>
    <tripinfo id="N_E_80" depart="374.00" departLane="gneE1_3" departPos="3.10" departSpeed="10.00" departDelay="0.00" arrival="422.00" arrivalLane="-gneE0_2" arrivalPos="300.00" arrivalSpeed="14.12" duration="48.00" routeLength="629.96" waitingTime="0.00" waitingCount="0" stopTime="0.00" timeLoss="3.22" rerouteNo="0" devices="tripinfo_N_E_80" vType="standard_car" speedFactor="1.03" vaporized=""/>
    <tripinfo id="N_W_81" depart="375.00" departLane="gneE1_2" departPos="3.10" departSpeed="10.00" departDelay="0.00" arrival="425.00" arrivalLane="-gneE2_0" arrivalPos="300.00" arrivalSpeed="13.37" duration="50.00" routeLength="605.77" waitingTime="0.00" waitingCount="0" stopTime="0.00" timeLoss="5.15" rerouteNo="0" devices="tripinfo_N_W_81" vType="standard_car" speedFactor="1.00" vaporized=""/>
    <tripinfo id="N_E_83" depart="379.00" departLane="gneE1_3" departPos="3.10" departSpeed="10.00" departDelay="0.00" arrival="428.00" arrivalLane="-gneE0_1" arrivalPos="300.00" arrivalSpeed="13.40" duration="49.00" routeLength="629.96" waitingTime="0.00" waitingCount="0" stopTime="0.00" timeLoss="1.57" rerouteNo="0" devices="tripinfo_N_E_83" vType="standard_car" speedFactor="0.97" vaporized=""/>
    <tripinfo id="N_E_85" depart="383.00" departLane="gneE1_3" departPos="3.10" departSpeed="10.00" departDelay="0.00" arrival="432.00" arrivalLane="-gneE0_1" arrivalPos="300.00" arrivalSpeed="13.22" duration="49.00" routeLength="629.96" waitingTime="0.00" waitingCount="0" stopTime="0.00" timeLoss="1.55" rerouteNo="0" devices="tripinfo_N_E_85" vType="standard_car" speedFactor="0.98" vaporized=""/>
    <tripinfo id="S_E_87" depart="387.00" departLane="gneE3_3" departPos="3.10" departSpeed="10.00" departDelay="0.00" arrival="435.00" arrivalLane="-gneE0_0" arrivalPos="300.00" arrivalSpeed="14.25" duration="48.00" routeLength="605.77" waitingTime="0.00" waitingCount="0" stopTime="0.00" timeLoss="5.05" rerouteNo="0" devices="tripinfo_S_E_87" vType="standard_car" speedFactor="1.04" vaporized=""/>
    <tripinfo id="N_E_89" depart="392.00" departLane="gneE1_2" departPos="3.10" departSpeed="10.00" departDelay="0.00" arrival="439.00" arrivalLane="-gneE0_2" arrivalPos="300.00" arrivalSpeed="14.16" duration="47.00" routeLength="629.96" waitingTime="0.00" waitingCount="0" stopTime="0.00" timeLoss="1.62" rerouteNo="0" devices="tripinfo_N_E_89" vType="standard_car" speedFactor="1.02" vaporized=""/>
    <tripinfo id="S_E_94" depart="400.00" departLane="gneE3_0" departPos="3.10" departSpeed="10.00" departDelay="0.00" arrival="447.00" arrivalLane="-gneE0_0" arrivalPos="300.00" arrivalSpeed="14.84" duration="47.00" routeLength="605.77" waitingTime="0.00" waitingCount="0" stopTime="0.00" timeLoss="5.18" rerouteNo="0" devices="tripinfo_S_E_94" vType="standard_car" speedFactor="1.09" vaporized=""/>
    <tripinfo id="N_E_91" depart="397.00" departLane="gneE1_1" departPos="3.10" departSpeed="10.00" departDelay="0.00" arrival="450.00" arrivalLane="-gneE0_1" arrivalPos="300.00" arrivalSpeed="12.16" duration="53.00" routeLength="629.96" waitingTime="0.00" waitingCount="0" stopTime="0.00" timeLoss="1.36" rerouteNo="0" devices="tripinfo_N_E_91" vType="standard_car" speedFactor="0.89" vaporized=""/>
    <tripinfo id="N_E_98" depart="405.00" departLane="gneE1_0" departPos="3.10" departSpeed="10.00" departDelay="0.00" arrival="450.00" arrivalLane="-gneE0_3" arrivalPos="300.00" arrivalSpeed="14.96" duration="45.00" routeLength="625.12" waitingTime="0.00" waitingCount="0" stopTime="0.00" timeLoss="2.34" rerouteNo="0" devices="tripinfo_N_E_98" vType="standard_car" speedFactor="1.12" vaporized=""/>
    <tripinfo id="E_N_93" depart="399.00" departLane="gneE0_1" departPos="3.10" departSpeed="10.00" departDelay="0.00" arrival="451.00" arrivalLane="-gneE1_0" arrivalPos="300.00" arrivalSpeed="12.40" duration="52.00" routeLength="605.77" waitingTime="0.00" waitingCount="0" stopTime="0.00" timeLoss="4.00" rerouteNo="0" devices="tripinfo_E_N_93" vType="standard_car" speedFactor="0.92" vaporized=""/>
    <tripinfo id="N_E_92" depart="399.00" departLane="gneE1_0" departPos="3.10" departSpeed="10.00" departDelay="0.00" arrival="456.00" arrivalLane="-gneE0_1" arrivalPos="300.00" arrivalSpeed="11.29" duration="57.00" routeLength="629.96" waitingTime="0.00" waitingCount="0" stopTime="0.00" timeLoss="1.55" rerouteNo="0" devices="tripinfo_N_E_92" vType="standard_car" speedFactor="0.83" vaporized=""/>
    <tripinfo id="N_E_97" depart="404.00" departLane="gneE1_3" departPos="3.10" departSpeed="10.00" departDelay="0.00" arrival="459.00" arrivalLane="-gneE0_1" arrivalPos="300.00" arrivalSpeed="12.31" duration="55.00" routeLength="629.96" waitingTime="0.00" waitingCount="0" stopTime="0.00" timeLoss="4.41" rerouteNo="0" devices="tripinfo_N_E_97" vType="standard_car" speedFactor="0.91" vaporized=""/>