<?xml version="1.0" encoding="UTF-8"?>

<!-- generated on 2022-01-10 08:33:10 by Eclipse SUMO sumo Version 1.10.0
<configuration xmlns:xsi="http://www.w3.org/2001/XMLSchema-instance" xsi:noNamespaceSchemaLocation="http://sumo.dlr.de/xsd/sumoConfiguration.xsd">

    <input>
        <net-file value="../DQN/unbalance_net/net1.net.xml"/>
        <route-files value="../DQN/unbalance_net/high_net_3000.rou.xml"/>
    </input>

    <output>
        <tripinfo-output value="tripinfo.xml"/>
    </output>

    <time>
        <begin value="0"/>
    </time>

    <traci_server>
        <remote-port value="50932"/>
    </traci_server>

    <gui_only>
        <quit-on-end value="true"/>
        <start value="true"/>
    </gui_only>

</configuration>
-->

<tripinfos xmlns:xsi="http://www.w3.org/2001/XMLSchema-instance" xsi:noNamespaceSchemaLocation="http://sumo.dlr.de/xsd/tripinfo_file.xsd">
    <tripinfo id="S_W_0" depart="41.00" departLane="gneE3_2" departPos="3.10" departSpeed="10.00" departDelay="0.00" arrival="90.00" arrivalLane="-gneE2_2" arrivalPos="300.00" arrivalSpeed="14.50" duration="49.00" routeLength="629.96" waitingTime="0.00" waitingCount="0" stopTime="0.00" timeLoss="5.19" rerouteNo="0" devices="tripinfo_S_W_0" vType="standard_car" speedFactor="1.06" vaporized=""/>
    <tripinfo id="N_E_3" depart="54.00" departLane="gneE1_3" departPos="3.10" departSpeed="10.00" departDelay="0.00" arrival="98.00" arrivalLane="-gneE0_2" arrivalPos="300.00" arrivalSpeed="14.80" duration="44.00" routeLength="629.96" waitingTime="0.00" waitingCount="0" stopTime="0.00" timeLoss="1.57" rerouteNo="0" devices="tripinfo_N_E_3" vType="standard_car" speedFactor="1.08" vaporized=""/>
    <tripinfo id="S_W_4" depart="69.00" departLane="gneE3_3" departPos="3.10" departSpeed="10.00" departDelay="0.00" arrival="115.00" arrivalLane="-gneE2_2" arrivalPos="300.00" arrivalSpeed="14.24" duration="46.00" routeLength="629.96" waitingTime="0.00" waitingCount="0" stopTime="0.00" timeLoss="1.56" rerouteNo="0" devices="tripinfo_S_W_4" vType="standard_car" speedFactor="1.03" vaporized=""/>
    <tripinfo id="S_N_5" depart="72.00" departLane="gneE3_2" departPos="3.10" departSpeed="10.00" departDelay="0.00" arrival="128.00" arrivalLane="-gneE1_0" arrivalPos="300.00" arrivalSpeed="11.34" duration="56.00" routeLength="628.90" waitingTime="0.00" waitingCount="0" stopTime="0.00" timeLoss="1.23" rerouteNo="0" devices="tripinfo_S_N_5" vType="standard_car" speedFactor="0.83" vaporized=""/>
    <tripinfo id="S_W_8" depart="113.00" departLane="gneE3_1" departPos="3.10" departSpeed="10.00" departDelay="0.00" arrival="164.00" arrivalLane="-gneE2_1" arrivalPos="300.00" arrivalSpeed="12.98" duration="51.00" routeLength="629.96" waitingTime="0.00" waitingCount="0" stopTime="0.00" timeLoss="1.45" rerouteNo="0" devices="tripinfo_S_W_8" vType="standard_car" speedFactor="0.94" vaporized=""/>
    <tripinfo id="N_E_7" depart="100.00" departLane="gneE1_2" departPos="3.10" departSpeed="10.00" departDelay="0.00" arrival="165.00" arrivalLane="-gneE0_1" arrivalPos="300.00" arrivalSpeed="12.30" duration="65.00" routeLength="629.96" waitingTime="2.00" waitingCount="1" stopTime="0.00" timeLoss="13.36" rerouteNo="0" devices="tripinfo_N_E_7" vType="standard_car" speedFactor="0.89" vaporized=""/>
    <tripinfo id="S_N_13" depart="165.00" departLane="gneE3_3" departPos="3.10" departSpeed="10.00" departDelay="1.00" arrival="209.00" arrivalLane="-gneE1_1" arrivalPos="300.00" arrivalSpeed="14.85" duration="44.00" routeLength="628.90" waitingTime="0.00" waitingCount="0" stopTime="0.00" timeLoss="1.61" rerouteNo="0" devices="tripinfo_S_N_13" vType="standard_car" speedFactor="1.12" vaporized=""/>
    <tripinfo id="S_N_14" depart="166.00" departLane="gneE3_1" departPos="3.10" departSpeed="10.00" departDelay="1.00" arrival="214.00" arrivalLane="-gneE1_0" arrivalPos="300.00" arrivalSpeed="13.42" duration="48.00" routeLength="628.90" waitingTime="0.00" waitingCount="0" stopTime="0.00" timeLoss="1.45" rerouteNo="0" devices="tripinfo_S_N_14" vType="standard_car" speedFactor="0.99" vaporized=""/>
    <tripinfo id="S_W_15" depart="168.00" departLane="gneE3_3" departPos="3.10" departSpeed="10.00" departDelay="0.00" arrival="220.00" arrivalLane="-gneE2_2" arrivalPos="300.00" arrivalSpeed="12.67" duration="52.00" routeLength="625.12" waitingTime="0.00" waitingCount="0" stopTime="0.00" timeLoss="2.89" rerouteNo="0" devices="tripinfo_S_W_15" vType="standard_car" speedFactor="0.93" vaporized=""/>
    <tripinfo id="N_E_10" depart="141.00" departLane="gneE1_3" departPos="3.10" departSpeed="10.00" departDelay="0.00" arrival="224.00" arrivalLane="-gneE0_2" arrivalPos="300.00" arrivalSpeed="14.79" duration="83.00" routeLength="629.96" waitingTime="28.00" waitingCount="1" stopTime="0.00" timeLoss="40.43" rerouteNo="0" devices="tripinfo_N_E_10" vType="standard_car" speedFactor="1.09" vaporized=""/>
    <tripinfo id="S_W_12" depart="163.00" departLane="gneE3_1" departPos="3.10" departSpeed="10.00" departDelay="0.00" arrival="224.00" arrivalLane="-gneE2_2" arrivalPos="300.00" arrivalSpeed="14.38" duration="61.00" routeLength="629.96" waitingTime="6.00" waitingCount="1" stopTime="0.00" timeLoss="17.06" rerouteNo="0" devices="tripinfo_S_W_12" vType="standard_car" speedFactor="1.05" vaporized=""/>
    <tripinfo id="E_N_16" depart="171.00" departLane="gneE0_2" departPos="3.10" departSpeed="10.00" departDelay="0.00" arrival="227.00" arrivalLane="-gneE1_0" arrivalPos="300.00" arrivalSpeed="12.15" duration="56.00" routeLength="605.77" waitingTime="0.00" waitingCount="0" stopTime="0.00" timeLoss="4.94" rerouteNo="0" devices="tripinfo_E_N_16" vType="standard_car" speedFactor="0.88" vaporized=""/>
    <tripinfo id="S_W_20" depart="181.00" departLane="gneE3_0" departPos="3.10" departSpeed="10.00" departDelay="0.00" arrival="228.00" arrivalLane="-gneE2_2" arrivalPos="300.00" arrivalSpeed="13.70" duration="47.00" routeLength="629.96" waitingTime="0.00" waitingCount="0" stopTime="0.00" timeLoss="1.81" rerouteNo="0" devices="tripinfo_S_W_20" vType="standard_car" speedFactor="1.02" vaporized=""/>
    <tripinfo id="S_W_21" depart="191.00" departLane="gneE3_2" departPos="3.10" departSpeed="10.00" departDelay="0.00" arrival="239.00" arrivalLane="-gneE2_1" arrivalPos="300.00" arrivalSpeed="13.62" duration="48.00" routeLength="629.96" waitingTime="0.00" waitingCount="0" stopTime="0.00" timeLoss="1.76" rerouteNo="0" devices="tripinfo_S_W_21" vType="standard_car" speedFactor="1.01" vaporized=""/>
    <tripinfo id="N_E_23" depart="197.00" departLane="gneE1_3" departPos="3.10" departSpeed="10.00" departDelay="0.00" arrival="252.00" arrivalLane="-gneE0_1" arrivalPos="300.00" arrivalSpeed="12.26" duration="55.00" routeLength="629.96" waitingTime="0.00" waitingCount="0" stopTime="0.00" timeLoss="3.32" rerouteNo="0" devices="tripinfo_N_E_23" vType="standard_car" speedFactor="0.89" vaporized=""/>
    <tripinfo id="N_E_24" depart="197.00" departLane="gneE1_1" departPos="3.10" departSpeed="10.00" departDelay="0.00" arrival="254.00" arrivalLane="-gneE0_2" arrivalPos="300.00" arrivalSpeed="10.98" duration="57.00" routeLength="625.12" waitingTime="0.00" waitingCount="0" stopTime="0.00" timeLoss="1.61" rerouteNo="0" devices="tripinfo_N_E_24" vType="standard_car" speedFactor="0.83" vaporized=""/>
    <tripinfo id="S_W_26" depart="216.00" departLane="gneE3_0" departPos="3.10" departSpeed="10.00" departDelay="0.00" arrival="268.00" arrivalLane="-gneE2_2" arrivalPos="300.00" arrivalSpeed="12.45" duration="52.00" routeLength="625.12" waitingTime="0.00" waitingCount="0" stopTime="0.00" timeLoss="2.09" rerouteNo="0" devices="tripinfo_S_W_26" vType="standard_car" speedFactor="0.92" vaporized=""/>
    <tripinfo id="N_E_27" depart="219.00" departLane="gneE1_3" departPos="3.10" departSpeed="10.00" departDelay="0.00" arrival="269.00" arrivalLane="-gneE0_1" arrivalPos="300.00" arrivalSpeed="12.74" duration="50.00" routeLength="629.96" waitingTime="0.00" waitingCount="0" stopTime="0.00" timeLoss="1.58" rerouteNo="0" devices="tripinfo_N_E_27" vType="standard_car" speedFactor="0.95" vaporized=""/>
    <tripinfo id="S_W_30" depart="234.00" departLane="gneE3_2" departPos="3.10" departSpeed="10.00" departDelay="0.00" arrival="280.00" arrivalLane="-gneE2_3" arrivalPos="300.00" arrivalSpeed="14.60" duration="46.00" routeLength="625.12" waitingTime="0.00" waitingCount="0" stopTime="0.00" timeLoss="3.08" rerouteNo="0" devices="tripinfo_S_W_30" vType="standard_car" speedFactor="1.18" vaporized=""/>
    <tripinfo id="N_E_29" depart="232.00" departLane="gneE1_1" departPos="3.10" departSpeed="10.00" departDelay="0.00" arrival="283.00" arrivalLane="-gneE0_1" arrivalPos="300.00" arrivalSpeed="12.57" duration="51.00" routeLength="629.96" waitingTime="0.00" waitingCount="0" stopTime="0.00" timeLoss="1.66" rerouteNo="0" devices="tripinfo_N_E_29" vType="standard_car" speedFactor="0.93" vaporized=""/>
    <tripinfo id="S_W_31" depart="240.00" departLane="gneE3_0" departPos="3.10" departSpeed="10.00" departDelay="0.00" arrival="285.00" arrivalLane="-gneE2_3" arrivalPos="300.00" arrivalSpeed="14.85" duration="45.00" routeLength="625.12" waitingTime="0.00" waitingCount="0" stopTime="0.00" timeLoss="2.32" rerouteNo="0" devices="tripinfo_S_W_31" vType="standard_car" speedFactor="1.15" vaporized=""/>
    <tripinfo id="N_E_32" depart="240.00" departLane="gneE1_3" departPos="3.10" departSpeed="10.00" departDelay="0.00" arrival="288.00" arrivalLane="-gneE0_2" arrivalPos="300.00" arrivalSpeed="13.53" duration="48.00" routeLength="629.96" waitingTime="0.00" waitingCount="0" stopTime="0.00" timeLoss="1.82" rerouteNo="0" devices="tripinfo_N_E_32" vType="standard_car" speedFactor="1.01" vaporized=""/>
    <tripinfo id="N_W_33" depart="242.00" departLane="gneE1_0" departPos="3.10" departSpeed="10.00" departDelay="1.00" arrival="288.00" arrivalLane="-gneE2_0" arrivalPos="300.00" arrivalSpeed="14.85" duration="46.00" routeLength="605.77" waitingTime="0.00" waitingCount="0" stopTime="0.00" timeLoss="4.70" rerouteNo="0" devices="tripinfo_N_W_33" vType="standard_car" speedFactor="1.17" vaporized=""/>
    <tripinfo id="S_N_19" depart="179.00" departLane="gneE3_0" departPos="3.10" departSpeed="10.00" departDelay="0.00" arrival="320.00" arrivalLane="-gneE1_1" arrivalPos="300.00" arrivalSpeed="14.65" duration="141.00" routeLength="628.90" waitingTime="86.00" waitingCount="1" stopTime="0.00" timeLoss="98.21" rerouteNo="0" devices="tripinfo_S_N_19" vType="standard_car" speedFactor="1.16" vaporized=""/>
    <tripinfo id="N_S_18" depart="172.00" departLane="gneE1_3" departPos="3.10" departSpeed="10.00" departDelay="0.00" arrival="322.00" arrivalLane="-gneE3_0" arrivalPos="300.00" arrivalSpeed="12.70" duration="150.00" routeLength="628.90" waitingTime="90.00" waitingCount="1" stopTime="0.00" timeLoss="101.52" rerouteNo="0" devices="tripinfo_N_S_18" vType="standard_car" speedFactor="0.94" vaporized=""/>
    <tripinfo id="S_N_22" depart="196.00" departLane="gneE3_0" departPos="3.10" departSpeed="10.00" departDelay="0.00" arrival="322.00" arrivalLane="-gneE1_2" arrivalPos="300.00" arrivalSpeed="13.14" duration="126.00" routeLength="628.90" waitingTime="67.00" waitingCount="1" stopTime="0.00" timeLoss="79.02" rerouteNo="0" devices="tripinfo_S_N_22" vType="standard_car" speedFactor="0.98" vaporized=""/>
    <tripinfo id="N_S_34" depart="243.00" departLane="gneE1_2" departPos="3.10" departSpeed="10.00" departDelay="0.00" arrival="322.00" arrivalLane="-gneE3_2" arrivalPos="300.00" arrivalSpeed="13.55" duration="79.00" routeLength="628.90" waitingTime="21.00" waitingCount="1" stopTime="0.00" timeLoss="33.36" rerouteNo="0" devices="tripinfo_N_S_34" vType="standard_car" speedFactor="0.99" vaporized=""/>
    <tripinfo id="S_N_35" depart="251.00" departLane="gneE3_0" departPos="3.10" departSpeed="10.00" departDelay="0.00" arrival="322.00" arrivalLane="-gneE1_1" arrivalPos="300.00" arrivalSpeed="13.98" duration="71.00" routeLength="628.90" waitingTime="13.00" waitingCount="1" stopTime="0.00" timeLoss="26.37" rerouteNo="0" devices="tripinfo_S_N_35" vType="standard_car" speedFactor="1.02" vaporized=""/>
    <tripinfo id="N_S_43" depart="274.00" departLane="gneE1_0" departPos="3.10" departSpeed="10.00" departDelay="0.00" arrival="323.00" arrivalLane="-gneE3_1" arrivalPos="300.00" arrivalSpeed="13.94" duration="49.00" routeLength="628.90" waitingTime="0.00" waitingCount="0" stopTime="0.00" timeLoss="4.74" rerouteNo="0" devices="tripinfo_N_S_43" vType="standard_car" speedFactor="1.04" vaporized=""/>
    <tripinfo id="N_S_44" depart="276.00" departLane="gneE1_1" departPos="3.10" departSpeed="10.00" departDelay="0.00" arrival="323.00" arrivalLane="-gneE3_3" arrivalPos="300.00" arrivalSpeed="14.39" duration="47.00" routeLength="628.90" waitingTime="0.00" waitingCount="0" stopTime="0.00" timeLoss="3.03" rerouteNo="0" devices="tripinfo_N_S_44" vType="standard_car" speedFactor="1.04" vaporized=""/>
    <tripinfo id="N_S_45" depart="280.00" departLane="gneE1_0" departPos="3.10" departSpeed="10.00" departDelay="0.00" arrival="324.00" arrivalLane="-gneE3_1" arrivalPos="300.00" arrivalSpeed="14.59" duration="44.00" routeLength="628.90" waitingTime="0.00" waitingCount="0" stopTime="0.00" timeLoss="1.78" rerouteNo="0" devices="tripinfo_N_S_45" vType="standard_car" speedFactor="1.09" vaporized=""/>
    <tripinfo id="N_S_47" depart="289.00" departLane="gneE1_2" departPos="3.10" departSpeed="10.00" departDelay="0.00" arrival="341.00" arrivalLane="-gneE3_0" arrivalPos="300.00" arrivalSpeed="12.08" duration="52.00" routeLength="628.90" waitingTime="0.00" waitingCount="0" stopTime="0.00" timeLoss="1.21" rerouteNo="0" devices="tripinfo_N_S_47" vType="standard_car" speedFactor="0.90" vaporized=""/>
    <tripinfo id="N_E_53" depart="302.00" departLane="gneE1_1" departPos="3.10" departSpeed="10.00" departDelay="0.00" arrival="347.00" arrivalLane="-gneE0_2" arrivalPos="300.00" arrivalSpeed="14.84" duration="45.00" routeLength="629.96" waitingTime="0.00" waitingCount="0" stopTime="0.00" timeLoss="1.86" rerouteNo="0" devices="tripinfo_N_E_53" vType="standard_car" speedFactor="1.10" vaporized=""/>
    <tripinfo id="S_W_50" depart="297.00" departLane="gneE3_3" departPos="3.10" departSpeed="10.00" departDelay="0.00" arrival="352.00" arrivalLane="-gneE2_2" arrivalPos="300.00" arrivalSpeed="11.50" duration="55.00" routeLength="625.12" waitingTime="0.00" waitingCount="0" stopTime="0.00" timeLoss="1.63" rerouteNo="0" devices="tripinfo_S_W_50" vType="standard_car" speedFactor="0.85" vaporized=""/>
    <tripinfo id="S_W_46" depart="287.00" departLane="gneE3_2" departPos="3.10" departSpeed="10.00" departDelay="0.00" arrival="355.00" arrivalLane="-gneE2_1" arrivalPos="300.00" arrivalSpeed="13.85" duration="68.00" routeLength="629.96" waitingTime="9.00" waitingCount="1" stopTime="0.00" timeLoss="21.52" rerouteNo="0" devices="tripinfo_S_W_46" vType="standard_car" speedFactor="1.00" vaporized=""/>
    <tripinfo id="W_S_55" depart="309.00" departLane="gneE2_2" departPos="3.10" departSpeed="10.00" departDelay="0.00" arrival="359.00" arrivalLane="-gneE3_0" arrivalPos="300.00" arrivalSpeed="13.47" duration="50.00" routeLength="605.77" waitingTime="0.00" waitingCount="0" stopTime="0.00" timeLoss="4.93" rerouteNo="0" devices="tripinfo_W_S_55" vType="standard_car" speedFactor="1.00" vaporized=""/>
    <tripinfo id="W_S_60" depart="326.00" departLane="gneE2_3" departPos="3.10" departSpeed="10.00" departDelay="0.00" arrival="373.00" arrivalLane="-gneE3_0" arrivalPos="300.00" arrivalSpeed="14.51" duration="47.00" routeLength="605.77" waitingTime="0.00" waitingCount="0" stopTime="0.00" timeLoss="5.38" rerouteNo="0" devices="tripinfo_W_S_60" vType="standard_car" speedFactor="1.08" vaporized=""/>
    <tripinfo id="N_S_57" depart="313.00" departLane="gneE1_1" departPos="3.10" departSpeed="10.00" departDelay="0.00" arrival="385.00" arrivalLane="-gneE3_1" arrivalPos="300.00" arrivalSpeed="14.80" duration="72.00" routeLength="628.90" waitingTime="14.00" waitingCount="1" stopTime="0.00" timeLoss="29.20" rerouteNo="0" devices="tripinfo_N_S_57" vType="standard_car" speedFactor="1.14" vaporized=""/>
    <tripinfo id="N_S_49" depart="294.00" departLane="gneE1_1" departPos="3.10" departSpeed="10.00" departDelay="0.00" arrival="387.00" arrivalLane="-gneE3_0" arrivalPos="300.00" arrivalSpeed="11.36" duration="93.00" routeLength="628.90" waitingTime="30.00" waitingCount="1" stopTime="0.00" timeLoss="39.51" rerouteNo="0" devices="tripinfo_N_S_49" vType="standard_car" speedFactor="0.85" vaporized=""/>
    <tripinfo id="W_E_1" depart="43.00" departLane="gneE2_1" departPos="3.10" departSpeed="10.00" departDelay="0.00" arrival="393.00" arrivalLane="-gneE0_0" arrivalPos="300.00" arrivalSpeed="12.62" duration="350.00" routeLength="596.90" waitingTime="301.00" waitingCount="1" stopTime="0.00" timeLoss="303.71" rerouteNo="0" devices="tripinfo_W_E_1" vType="standard_car" speedFactor="0.94" vaporized=""/>
    <tripinfo id="W_N_2" depart="50.00" departLane="gneE2_3" departPos="3.10" departSpeed="10.00" departDelay="0.00" arrival="398.00" arrivalLane="-gneE1_0" arrivalPos="300.00" arrivalSpeed="13.62" duration="348.00" routeLength="596.90" waitingTime="301.00" waitingCount="1" stopTime="0.00" timeLoss="305.28" rerouteNo="0" devices="tripinfo_W_N_2" vType="standard_car" speedFactor="1.01" vaporized=""/>
    <tripinfo id="S_N_67" depart="347.00" departLane="gneE3_0" departPos="3.10" departSpeed="10.00" departDelay="0.00" arrival="399.00" arrivalLane="-gneE1_0" arrivalPos="300.00" arrivalSpeed="12.47" duration="52.00" routeLength="628.90" waitingTime="0.00" waitingCount="0" stopTime="0.00" timeLoss="1.66" rerouteNo="0" devices="tripinfo_S_N_67" vType="standard_car" speedFactor="0.91" vaporized=""/>
    <tripinfo id="S_E_66" depart="346.00" departLane="gneE3_1" departPos="3.10" departSpeed="10.00" departDelay="0.00" arrival="400.00" arrivalLane="-gneE0_0" arrivalPos="300.00" arrivalSpeed="12.49" duration="54.00" routeLength="605.77" waitingTime="0.00" waitingCount="0" stopTime="0.00" timeLoss="4.47" rerouteNo="0" devices="tripinfo_S_E_66" vType="standard_car" speedFactor="0.91" vaporized=""/>
    <tripinfo id="W_S_75" depart="362.00" departLane="gneE2_1" departPos="3.10" departSpeed="10.00" departDelay="0.00" arrival="412.00" arrivalLane="-gneE3_0" arrivalPos="300.00" arrivalSpeed="13.24" duration="50.00" routeLength="605.77" waitingTime="0.00" waitingCount="0" stopTime="0.00" timeLoss="4.68" rerouteNo="0" devices="tripinfo_W_S_75" vType="standard_car" speedFactor="0.98" vaporized=""/>
    <tripinfo id="N_E_77" depart="363.00" departLane="gneE1_2" departPos="3.10" departSpeed="10.00" departDelay="0.00" arrival="412.00" arrivalLane="-gneE0_2" arrivalPos="300.00" arrivalSpeed="13.57" duration="49.00" routeLength="625.12" waitingTime="0.00" waitingCount="0" stopTime="0.00" timeLoss="1.88" rerouteNo="0" devices="tripinfo_N_E_77" vType="standard_car" speedFactor="0.98" vaporized=""/>
    <tripinfo id="N_E_78" depart="368.00" departLane="gneE1_1" departPos="3.10" departSpeed="10.00" departDelay="0.00" arrival="415.00" arrivalLane="-gneE0_3" arrivalPos="300.00" arrivalSpeed="13.65" duration="47.00" routeLength="625.12" waitingTime="0.00" waitingCount="0" stopTime="0.00" timeLoss="1.78" rerouteNo="0" devices="tripinfo_N_E_78" vType="standard_car" speedFactor="1.01" vaporized=""/>
    <tripinfo id="S_W_63" depart="335.00" departLane="gneE3_0" departPos="3.10" departSpeed="10.00" departDelay="0.00" arrival="418.00" arrivalLane="-gneE2_1" arrivalPos="300.00" arrivalSpeed="13.65" duration="83.00" routeLength="629.96" waitingTime="24.00" waitingCount="1" stopTime="0.00" timeLoss="36.22" rerouteNo="0" devices="tripinfo_S_W_63" vType="standard_car" speedFactor="0.99" vaporized=""/>
    <tripinfo id="S_W_64" depart="341.00" departLane="gneE3_1" departPos="3.10" departSpeed="10.00" departDelay="0.00" arrival="419.00" arrivalLane="-gneE2_2" arrivalPos="300.00" arrivalSpeed="12.92" duration="78.00" routeLength="625.12" waitingTime="18.00" waitingCount="1" stopTime="0.00" timeLoss="29.19" rerouteNo="0" devices="tripinfo_S_W_64" vType="standard_car" speedFactor="0.94" vaporized=""/>
    <tripinfo id="N_E_71" depart="349.00" departLane="gneE1_0" departPos="3.10" departSpeed="10.00" departDelay="0.00" arrival="419.00" arrivalLane="-gneE0_1" arrivalPos="300.00" arrivalSpeed="13.03" duration="70.00" routeLength="629.96" waitingTime="11.00" waitingCount="1" stopTime="0.00" timeLoss="22.14" rerouteNo="0" devices="tripinfo_N_E_71" vType="standard_car" speedFactor="0.97" vaporized=""/>
    <tripinfo id="N_E_80" depart="374.00" departLane="gneE1_3" departPos="3.10" departSpeed="10.00" departDelay="0.00" arrival="420.00" arrivalLane="-gneE0_2" arrivalPos="300.00" arrivalSpeed="14.27" duration="46.00" routeLength="629.96" waitingTime="0.00" waitingCount="0" stopTime="0.00" timeLoss="1.62" rerouteNo="0" devices="tripinfo_N_E_80" vType="standard_car" speedFactor="1.03" vaporized=""/>
    <tripinfo id="N_W_81" depart="375.00" departLane="gneE1_2" departPos="3.10" departSpeed="10.00" departDelay="0.00" arrival="425.00" arrivalLane="-gneE2_0" arrivalPos="300.00" arrivalSpeed="13.58" duration="50.00" routeLength="605.77" waitingTime="0.00" waitingCount="0" stopTime="0.00" timeLoss="4.94" rerouteNo="0" devices="tripinfo_N_W_81" vType="standard_car" speedFactor="1.00" vaporized=""/>
    <tripinfo id="N_E_83" depart="379.00" departLane="gneE1_3" departPos="3.10" departSpeed="10.00" departDelay="0.00" arrival="428.00" arrivalLane="-gneE0_1" arrivalPos="300.00" arrivalSpeed="13.28" duration="49.00" routeLength="629.96" waitingTime="0.00" waitingCount="0" stopTime="0.00" timeLoss="1.63" rerouteNo="0" devices="tripinfo_N_E_83" vType="standard_car" speedFactor="0.97" vaporized=""/>
    <tripinfo id="N_E_85" depart="383.00" departLane="gneE1_3" departPos="3.10" departSpeed="10.00" departDelay="0.00" arrival="432.00" arrivalLane="-gneE0_1" arrivalPos="300.00" arrivalSpeed="13.08" duration="49.00" routeLength="629.96" waitingTime="0.00" waitingCount="0" stopTime="0.00" timeLoss="1.74" rerouteNo="0" devices="tripinfo_N_E_85" vType="standard_car" speedFactor="0.98" vaporized=""/>
    <tripinfo id="S_E_87" depart="387.00" departLane="gneE3_3" departPos="3.10" departSpeed="10.00" departDelay="0.00" arrival="435.00" arrivalLane="-gneE0_0" arrivalPos="300.00" arrivalSpeed="14.11" duration="48.00" routeLength="605.77" waitingTime="0.00" waitingCount="0" stopTime="0.00" timeLoss="5.21" rerouteNo="0" devices="tripinfo_S_E_87" vType="standard_car" speedFactor="1.04" vaporized=""/>
    <tripinfo id="N_E_89" depart="392.00" departLane="gneE1_2" departPos="3.10" departSpeed="10.00" departDelay="0.00" arrival="440.00" arrivalLane="-gneE0_2" arrivalPos="300.00" arrivalSpeed="14.15" duration="48.00" routeLength="629.96" waitingTime="0.00" waitingCount="0" stopTime="0.00" timeLoss="2.61" rerouteNo="0" devices="tripinfo_N_E_89" vType="standard_car" speedFactor="1.02" vaporized=""/>
    <tripinfo id="S_E_94" depart="400.00" departLane="gneE3_0" departPos="3.10" departSpeed="10.00" departDelay="0.00" arrival="446.00" arrivalLane="-gneE0_0" arrivalPos="300.00" arrivalSpeed="14.52" duration="46.00" routeLength="605.77" waitingTime="0.00" waitingCount="0" stopTime="0.00" timeLoss="4.99" rerouteNo="0" devices="tripinfo_S_E_94" vType="standard_car" speedFactor="1.09" vaporized=""/>
    <tripinfo id="N_E_91" depart="397.00" departLane="gneE1_1" departPos="3.10" departSpeed="10.00" departDelay="0.00" arrival="450.00" arrivalLane="-gneE0_1" arrivalPos="300.00" arrivalSpeed="11.90" duration="53.00" routeLength="629.96" waitingTime="0.00" waitingCount="0" stopTime="0.00" timeLoss="1.52" rerouteNo="0" devices="tripinfo_N_E_91" vType="standard_car" speedFactor="0.89" vaporized=""/>
    <tripinfo id="N_E_98" depart="405.00" departLane="gneE1_0" departPos="3.10" departSpeed="10.00" departDelay="0.00" arrival="450.00" arrivalLane="-gneE0_3" arrivalPos="300.00" arrivalSpeed="14.59" duration="45.00" routeLength="625.12" waitingTime="0.00" waitingCount="0" stopTime="0.00" timeLoss="2.05" rerouteNo="0" devices="tripinfo_N_E_98" vType="standard_car" speedFactor="1.12" vaporized=""/>
    <tripinfo id="E_N_93" depart="399.00" departLane="gneE0_1" departPos="3.10" departSpeed="10.00" departDelay="0.00" arrival="452.00" arrivalLane="-gneE1_0" arrivalPos="300.00" arrivalSpeed="12.67" duration="53.00" routeLength="605.77" waitingTime="0.00" waitingCount="0" stopTime="0.00" timeLoss="4.25" rerouteNo="0" devices="tripinfo_E_N_93" vType="standard_car" speedFactor="0.92" vaporized=""/>
    <tripinfo id="N_E_92" depart="399.00" departLane="gneE1_0" departPos="3.10" departSpeed="10.00" departDelay="0.00" arrival="456.00" arrivalLane="-gneE0_1" arrivalPos="300.00" arrivalSpeed="11.38" duration="57.00" routeLength="629.96" waitingTime="0.00" waitingCount="0" stopTime="0.00" timeLoss="1.51" rerouteNo="0" devices="tripinfo_N_E_92" vType="standard_car" speedFactor="0.83" vaporized=""/>
    <tripinfo id="N_E_97" depart="404.00" departLane="gneE1_3" departPos="3.10" departSpeed="10.00" departDelay="0.00" arrival="456.00" arrivalLane="-gneE0_2" arrivalPos="300.00" arrivalSpeed="12.17" duration="52.00" routeLength="629.96" waitingTime="0.00" waitingCount="0" stopTime="0.00" timeLoss="1.36" rerouteNo="0" devices="tripinfo_N_E_97" vType="standard_car" speedFactor="0.91" vaporized=""/>
    <tripinfo id="W_E_6" depart="73.00" departLane="gneE2_0" departPos="3.10" departSpeed="10.00" departDelay="0.00" arrival="480.00" arrivalLane="-gneE0_1" arrivalPos="300.00" arrivalSpeed="14.47" duration="407.00" routeLength="628.90" waitingTime="344.00" waitingCount="2" stopTime="0.00" timeLoss="362.95" rerouteNo="0" devices="tripinfo_W_E_6" vType="standard_car" speedFactor="1.05" vaporized=""/>
    <tripinfo id="W_E_42" depart="271.00" departLane="gneE2_1" departPos="3.10" departSpeed="10.00" departDelay="0.00" arrival="482.00" arrivalLane="-gneE0_1" arrivalPos="300.00" arrivalSpeed="14.68" duration="211.00" routeLength="628.90" waitingTime="150.00" waitingCount="2" stopTime="0.00" timeLoss="168.12" rerouteNo="0" devices="tripinfo_W_E_42" vType="standard_car" speedFactor="1.09" vaporized=""/>
    <tripinfo id="E_W_9" depart="126.00" departLane="gneE0_3" departPos="3.10" departSpeed="10.00" departDelay="0.00" arrival="483.00" arrivalLane="-gneE2_0" arrivalPos="300.00" arrivalSpeed="11.77" duration="357.00" routeLength="628.90" waitingTime="294.00" waitingCount="1" stopTime="0.00" timeLoss="303.64" rerouteNo="0" devices="tripinfo_E_W_9" vType="standard_car" speedFactor="0.86" vaporized=""/>
    <tripinfo id="E_W_41" depart="269.00" departLane="gneE0_3" departPos="3.10" departSpeed="10.00" departDelay="0.00" arrival="483.00" arrivalLane="-gneE2_1" arrivalPos="300.00" arrivalSpeed="12.82" duration="214.00" routeLength="628.90" waitingTime="151.00" waitingCount="2" stopTime="0.00" timeLoss="166.21" rerouteNo="0" devices="tripinfo_E_W_41" vType="standard_car" speedFactor="0.96" vaporized=""/>
    <tripinfo id="E_W_59" depart="320.00" departLane="gneE0_3" departPos="3.10" departSpeed="10.00" departDelay="0.00" arrival="485.00" arrivalLane="-gneE2_1" arrivalPos="300.00" arrivalSpeed="13.31" duration="165.00" routeLength="628.90" waitingTime="100.00" waitingCount="1" stopTime="0.00" timeLoss="117.81" rerouteNo="0" devices="tripinfo_E_W_59" vType="standard_car" speedFactor="0.97" vaporized=""/>
    <tripinfo id="W_E_68" depart="347.00" departLane="gneE2_1" departPos="3.10" departSpeed="10.00" departDelay="0.00" arrival="486.00" arrivalLane="-gneE0_1" arrivalPos="300.00" arrivalSpeed="14.15" duration="139.00" routeLength="628.90" waitingTime="77.00" waitingCount="2" stopTime="0.00" timeLoss="94.74" rerouteNo="0" devices="tripinfo_W_E_68" vType="standard_car" speedFactor="1.04" vaporized=""/>
    <tripinfo id="E_W_73" depart="354.00" departLane="gneE0_3" departPos="3.10" departSpeed="10.00" departDelay="1.00" arrival="486.00" arrivalLane="-gneE2_1" arrivalPos="300.00" arrivalSpeed="13.92" duration="132.00" routeLength="628.90" waitingTime="71.00" waitingCount="1" stopTime="0.00" timeLoss="88.94" rerouteNo="0" devices="tripinfo_E_W_73" vType="standard_car" speedFactor="1.06" vaporized=""/>
    <tripinfo id="W_E_65" depart="343.00" departLane="gneE2_1" departPos="3.10" departSpeed="10.00" departDelay="0.00" arrival="487.00" arrivalLane="-gneE0_0" arrivalPos="300.00" arrivalSpeed="12.03" duration="144.00" routeLength="628.90" waitingTime="76.00" waitingCount="2" stopTime="0.00" timeLoss="91.73" rerouteNo="0" devices="tripinfo_W_E_65" vType="standard_car" speedFactor="0.88" vaporized=""/>
    <tripinfo id="E_S_11" depart="142.00" departLane="gneE0_1" departPos="3.10" departSpeed="10.00" departDelay="0.00" arrival="488.00" arrivalLane="-gneE3_0" arrivalPos="300.00" arrivalSpeed="13.91" duration="346.00" routeLength="596.90" waitingTime="301.00" waitingCount="1" stopTime="0.00" timeLoss="303.59" rerouteNo="0" devices="tripinfo_E_S_11" vType="standard_car" speedFactor="1.03" vaporized=""/>
    <tripinfo id="W_E_74" depart="359.00" departLane="gneE2_2" departPos="3.10" departSpeed="10.00" departDelay="0.00" arrival="488.00" arrivalLane="-gneE0_1" arrivalPos="300.00" arrivalSpeed="13.20" duration="129.00" routeLength="628.90" waitingTime="64.00" waitingCount="1" stopTime="0.00" timeLoss="81.34" rerouteNo="0" devices="tripinfo_W_E_74" vType="standard_car" speedFactor="0.96" vaporized=""/>
    <tripinfo id="W_E_79" depart="368.00" departLane="gneE2_2" departPos="3.10" departSpeed="10.00" departDelay="0.00" arrival="488.00" arrivalLane="-gneE0_2" arrivalPos="300.00" arrivalSpeed="14.97" duration="120.00" routeLength="628.90" waitingTime="58.00" waitingCount="2" stopTime="0.00" timeLoss="77.93" rerouteNo="0" devices="tripinfo_W_E_79" vType="standard_car" speedFactor="1.09" vaporized=""/>