<?xml version="1.0" encoding="UTF-8"?>

<!-- generated on 2021-11-24 13:50:34 by Eclipse SUMO GUI Version 1.10.0
<configuration xmlns:xsi="http://www.w3.org/2001/XMLSchema-instance" xsi:noNamespaceSchemaLocation="http://sumo.dlr.de/xsd/sumoConfiguration.xsd">

    <input>
        <net-file value="net/netFile/net0.net.xml"/>
        <route-files value="net/netFile/low_net.rou.xml"/>
    </input>

    <output>
        <tripinfo-output value="tripinfo.xml"/>
    </output>

    <time>
        <begin value="0"/>
        <end value="5400"/>
        <step-length value="0.1"/>
    </time>

    <processing>
        <time-to-teleport value="-1"/>
        <waiting-time-memory value="15"/>
    </processing>

    <traci_server>
        <remote-port value="53663"/>
    </traci_server>

    <gui_only>
        <quit-on-end value="true"/>
        <start value="true"/>
        <tracker-interval value="0.1"/>
    </gui_only>

</configuration>
-->

<tripinfos xmlns:xsi="http://www.w3.org/2001/XMLSchema-instance" xsi:noNamespaceSchemaLocation="http://sumo.dlr.de/xsd/tripinfo_file.xsd">
    <tripinfo id="E_N_1" depart="33.00" departLane="gneE0_1" departPos="3.10" departSpeed="10.00" departDelay="0.00" arrival="83.70" arrivalLane="-gneE1_0" arrivalPos="300.00" arrivalSpeed="13.02" duration="50.70" routeLength="605.77" waitingTime="0.00" waitingCount="0" stopTime="0.00" timeLoss="3.42" rerouteNo="0" devices="tripinfo_E_N_1" vType="standard_car" speedFactor="0.94" vaporized=""/>
    <tripinfo id="N_E_2" depart="44.00" departLane="gneE1_3" departPos="3.10" departSpeed="10.00" departDelay="0.00" arrival="90.30" arrivalLane="-gneE0_2" arrivalPos="300.00" arrivalSpeed="14.03" duration="46.30" routeLength="629.96" waitingTime="0.00" waitingCount="0" stopTime="0.00" timeLoss="0.99" rerouteNo="0" devices="tripinfo_N_E_2" vType="standard_car" speedFactor="1.01" vaporized=""/>
    <tripinfo id="E_S_4" depart="51.00" departLane="gneE0_3" departPos="3.10" departSpeed="10.00" departDelay="0.00" arrival="98.50" arrivalLane="-gneE3_2" arrivalPos="300.00" arrivalSpeed="14.27" duration="47.50" routeLength="625.12" waitingTime="0.00" waitingCount="0" stopTime="0.00" timeLoss="3.30" rerouteNo="0" devices="tripinfo_E_S_4" vType="standard_car" speedFactor="1.03" vaporized=""/>
    <tripinfo id="E_S_0" depart="28.00" departLane="gneE0_2" departPos="3.10" departSpeed="10.00" departDelay="0.00" arrival="104.70" arrivalLane="-gneE3_1" arrivalPos="300.00" arrivalSpeed="14.71" duration="76.70" routeLength="629.96" waitingTime="21.80" waitingCount="1" stopTime="0.00" timeLoss="33.50" rerouteNo="0" devices="tripinfo_E_S_0" vType="standard_car" speedFactor="1.06" vaporized=""/>
    <tripinfo id="N_W_8" depart="56.00" departLane="gneE1_1" departPos="3.10" departSpeed="10.00" departDelay="0.00" arrival="106.80" arrivalLane="-gneE2_0" arrivalPos="300.00" arrivalSpeed="13.02" duration="50.80" routeLength="605.77" waitingTime="0.00" waitingCount="0" stopTime="0.00" timeLoss="3.45" rerouteNo="0" devices="tripinfo_N_W_8" vType="standard_car" speedFactor="0.94" vaporized=""/>
    <tripinfo id="E_S_5" depart="53.00" departLane="gneE0_2" departPos="3.10" departSpeed="10.00" departDelay="0.00" arrival="110.90" arrivalLane="-gneE3_0" arrivalPos="300.00" arrivalSpeed="11.51" duration="57.90" routeLength="629.96" waitingTime="0.00" waitingCount="0" stopTime="0.00" timeLoss="2.78" rerouteNo="0" devices="tripinfo_E_S_5" vType="standard_car" speedFactor="0.83" vaporized=""/>
    <tripinfo id="W_N_3" depart="50.00" departLane="gneE2_3" departPos="3.10" departSpeed="10.00" departDelay="0.00" arrival="114.60" arrivalLane="-gneE1_2" arrivalPos="300.00" arrivalSpeed="14.98" duration="64.60" routeLength="629.96" waitingTime="9.90" waitingCount="1" stopTime="0.00" timeLoss="22.17" rerouteNo="0" devices="tripinfo_W_N_3" vType="standard_car" speedFactor="1.08" vaporized=""/>
    <tripinfo id="S_E_9" depart="62.00" departLane="gneE3_3" departPos="3.10" departSpeed="10.00" departDelay="0.00" arrival="116.70" arrivalLane="-gneE0_0" arrivalPos="300.00" arrivalSpeed="11.86" duration="54.70" routeLength="605.77" waitingTime="0.00" waitingCount="0" stopTime="0.00" timeLoss="2.93" rerouteNo="0" devices="tripinfo_S_E_9" vType="standard_car" speedFactor="0.86" vaporized=""/>
    <tripinfo id="W_E_6" depart="53.00" departLane="gneE2_0" departPos="3.10" departSpeed="10.00" departDelay="0.00" arrival="118.40" arrivalLane="-gneE0_1" arrivalPos="300.00" arrivalSpeed="14.49" duration="65.40" routeLength="628.90" waitingTime="9.80" waitingCount="1" stopTime="0.00" timeLoss="22.04" rerouteNo="0" devices="tripinfo_W_E_6" vType="standard_car" speedFactor="1.05" vaporized=""/>
    <tripinfo id="E_W_12" depart="76.00" departLane="gneE0_1" departPos="3.10" departSpeed="10.00" departDelay="0.00" arrival="120.30" arrivalLane="-gneE2_1" arrivalPos="300.00" arrivalSpeed="14.51" duration="44.30" routeLength="628.90" waitingTime="0.00" waitingCount="0" stopTime="0.00" timeLoss="1.01" rerouteNo="0" devices="tripinfo_E_W_12" vType="standard_car" speedFactor="1.05" vaporized=""/>
    <tripinfo id="N_W_19" depart="93.00" departLane="gneE1_0" departPos="3.10" departSpeed="10.00" departDelay="0.00" arrival="138.30" arrivalLane="-gneE2_0" arrivalPos="300.00" arrivalSpeed="14.98" duration="45.30" routeLength="605.77" waitingTime="0.00" waitingCount="0" stopTime="0.00" timeLoss="4.35" rerouteNo="0" devices="tripinfo_N_W_19" vType="standard_car" speedFactor="1.16" vaporized=""/>
    <tripinfo id="W_S_16" depart="85.00" departLane="gneE2_1" departPos="3.10" departSpeed="10.00" departDelay="0.00" arrival="138.70" arrivalLane="-gneE3_0" arrivalPos="300.00" arrivalSpeed="12.16" duration="53.70" routeLength="605.77" waitingTime="0.00" waitingCount="0" stopTime="0.00" timeLoss="3.20" rerouteNo="0" devices="tripinfo_W_S_16" vType="standard_car" speedFactor="0.88" vaporized=""/>
    <tripinfo id="W_N_13" depart="78.00" departLane="gneE2_1" departPos="3.10" departSpeed="10.00" departDelay="0.00" arrival="144.30" arrivalLane="-gneE1_2" arrivalPos="300.00" arrivalSpeed="14.97" duration="66.30" routeLength="629.96" waitingTime="11.60" waitingCount="1" stopTime="0.00" timeLoss="23.96" rerouteNo="0" devices="tripinfo_W_N_13" vType="standard_car" speedFactor="1.12" vaporized=""/>
    <tripinfo id="W_N_14" depart="83.00" departLane="gneE2_3" departPos="3.10" departSpeed="10.00" departDelay="0.00" arrival="145.20" arrivalLane="-gneE1_3" arrivalPos="300.00" arrivalSpeed="13.76" duration="62.20" routeLength="625.12" waitingTime="5.00" waitingCount="1" stopTime="0.00" timeLoss="16.27" rerouteNo="0" devices="tripinfo_W_N_14" vType="standard_car" speedFactor="0.99" vaporized=""/>
    <tripinfo id="N_W_21" depart="98.00" departLane="gneE1_0" departPos="3.10" departSpeed="10.00" departDelay="0.00" arrival="145.90" arrivalLane="-gneE2_0" arrivalPos="300.00" arrivalSpeed="14.00" duration="47.90" routeLength="605.77" waitingTime="0.00" waitingCount="0" stopTime="0.00" timeLoss="3.96" rerouteNo="0" devices="tripinfo_N_W_21" vType="standard_car" speedFactor="1.01" vaporized=""/>
    <tripinfo id="E_W_17" depart="90.00" departLane="gneE0_3" departPos="3.10" departSpeed="10.00" departDelay="0.00" arrival="149.90" arrivalLane="-gneE2_1" arrivalPos="300.00" arrivalSpeed="13.07" duration="59.90" routeLength="628.90" waitingTime="0.50" waitingCount="1" stopTime="0.00" timeLoss="11.73" rerouteNo="0" devices="tripinfo_E_W_17" vType="standard_car" speedFactor="0.94" vaporized=""/>
    <tripinfo id="S_N_10" depart="69.00" departLane="gneE3_3" departPos="3.10" departSpeed="10.00" departDelay="0.00" arrival="150.70" arrivalLane="-gneE1_1" arrivalPos="300.00" arrivalSpeed="14.97" duration="81.70" routeLength="628.90" waitingTime="27.20" waitingCount="1" stopTime="0.00" timeLoss="39.71" rerouteNo="0" devices="tripinfo_S_N_10" vType="standard_car" speedFactor="1.09" vaporized=""/>
    <tripinfo id="E_W_15" depart="83.00" departLane="gneE0_3" departPos="3.10" departSpeed="10.00" departDelay="0.00" arrival="151.10" arrivalLane="-gneE2_0" arrivalPos="300.00" arrivalSpeed="12.84" duration="68.10" routeLength="628.90" waitingTime="7.60" waitingCount="1" stopTime="0.00" timeLoss="19.20" rerouteNo="0" devices="tripinfo_E_W_15" vType="standard_car" speedFactor="0.93" vaporized=""/>
    <tripinfo id="S_N_22" depart="99.00" departLane="gneE3_0" departPos="3.10" departSpeed="10.00" departDelay="0.00" arrival="153.20" arrivalLane="-gneE1_3" arrivalPos="300.00" arrivalSpeed="13.52" duration="54.20" routeLength="628.90" waitingTime="0.00" waitingCount="0" stopTime="0.00" timeLoss="7.70" rerouteNo="0" devices="tripinfo_S_N_22" vType="standard_car" speedFactor="0.98" vaporized=""/>
    <tripinfo id="S_N_11" depart="74.00" departLane="gneE3_1" departPos="3.10" departSpeed="10.00" departDelay="0.00" arrival="153.80" arrivalLane="-gneE1_1" arrivalPos="300.00" arrivalSpeed="14.22" duration="79.80" routeLength="628.90" waitingTime="18.50" waitingCount="1" stopTime="0.00" timeLoss="35.59" rerouteNo="0" devices="tripinfo_S_N_11" vType="standard_car" speedFactor="1.03" vaporized=""/>
    <tripinfo id="S_N_7" depart="54.00" departLane="gneE3_2" departPos="3.10" departSpeed="10.00" departDelay="0.00" arrival="153.90" arrivalLane="-gneE1_0" arrivalPos="300.00" arrivalSpeed="12.27" duration="99.90" routeLength="628.90" waitingTime="39.00" waitingCount="1" stopTime="0.00" timeLoss="48.74" rerouteNo="0" devices="tripinfo_S_N_7" vType="standard_car" speedFactor="0.89" vaporized=""/>
    <tripinfo id="S_E_28" depart="115.00" departLane="gneE3_0" departPos="3.10" departSpeed="10.00" departDelay="0.00" arrival="160.40" arrivalLane="-gneE0_0" arrivalPos="300.00" arrivalSpeed="14.98" duration="45.40" routeLength="605.77" waitingTime="0.00" waitingCount="0" stopTime="0.00" timeLoss="4.29" rerouteNo="0" devices="tripinfo_S_E_28" vType="standard_car" speedFactor="1.13" vaporized=""/>
    <tripinfo id="E_N_25" depart="107.00" departLane="gneE0_3" departPos="3.10" departSpeed="10.00" departDelay="0.00" arrival="161.00" arrivalLane="-gneE1_0" arrivalPos="300.00" arrivalSpeed="12.12" duration="54.00" routeLength="605.77" waitingTime="0.00" waitingCount="0" stopTime="0.00" timeLoss="3.15" rerouteNo="0" devices="tripinfo_E_N_25" vType="standard_car" speedFactor="0.87" vaporized=""/>
    <tripinfo id="S_W_18" depart="91.00" departLane="gneE3_2" departPos="3.10" departSpeed="10.00" departDelay="0.00" arrival="165.70" arrivalLane="-gneE2_1" arrivalPos="300.00" arrivalSpeed="12.99" duration="74.70" routeLength="629.96" waitingTime="15.60" waitingCount="1" stopTime="0.00" timeLoss="25.80" rerouteNo="0" devices="tripinfo_S_W_18" vType="standard_car" speedFactor="0.94" vaporized=""/>
    <tripinfo id="E_N_31" depart="123.00" departLane="gneE0_1" departPos="3.10" departSpeed="10.00" departDelay="0.00" arrival="168.20" arrivalLane="-gneE1_0" arrivalPos="300.00" arrivalSpeed="14.98" duration="45.20" routeLength="605.77" waitingTime="0.00" waitingCount="0" stopTime="0.00" timeLoss="4.22" rerouteNo="0" devices="tripinfo_E_N_31" vType="standard_car" speedFactor="1.15" vaporized=""/>
    <tripinfo id="N_E_27" depart="110.00" departLane="gneE1_2" departPos="3.10" departSpeed="10.00" departDelay="0.00" arrival="168.80" arrivalLane="-gneE0_2" arrivalPos="300.00" arrivalSpeed="13.14" duration="58.80" routeLength="625.12" waitingTime="0.50" waitingCount="1" stopTime="0.00" timeLoss="10.77" rerouteNo="0" devices="tripinfo_N_E_27" vType="standard_car" speedFactor="0.95" vaporized=""/>
    <tripinfo id="W_N_34" depart="125.00" departLane="gneE2_3" departPos="3.10" departSpeed="10.00" departDelay="0.00" arrival="172.00" arrivalLane="-gneE1_2" arrivalPos="300.00" arrivalSpeed="13.80" duration="47.00" routeLength="625.12" waitingTime="0.00" waitingCount="0" stopTime="0.00" timeLoss="1.21" rerouteNo="0" devices="tripinfo_W_N_34" vType="standard_car" speedFactor="0.99" vaporized=""/>
    <tripinfo id="E_N_32" depart="123.00" departLane="gneE0_2" departPos="3.10" departSpeed="10.00" departDelay="0.00" arrival="172.60" arrivalLane="-gneE1_0" arrivalPos="300.00" arrivalSpeed="13.92" duration="49.60" routeLength="605.77" waitingTime="0.00" waitingCount="0" stopTime="0.00" timeLoss="5.45" rerouteNo="0" devices="tripinfo_E_N_32" vType="standard_car" speedFactor="1.01" vaporized=""/>
    <tripinfo id="E_S_26" depart="109.00" departLane="gneE0_1" departPos="3.10" departSpeed="10.00" departDelay="0.00" arrival="176.00" arrivalLane="-gneE3_2" arrivalPos="300.00" arrivalSpeed="12.73" duration="67.00" routeLength="625.12" waitingTime="7.10" waitingCount="1" stopTime="0.00" timeLoss="17.31" rerouteNo="0" devices="tripinfo_E_S_26" vType="standard_car" speedFactor="0.92" vaporized=""/>
    <tripinfo id="E_N_35" depart="129.00" departLane="gneE0_3" departPos="3.10" departSpeed="10.00" departDelay="0.00" arrival="176.70" arrivalLane="-gneE1_0" arrivalPos="300.00" arrivalSpeed="14.14" duration="47.70" routeLength="605.77" waitingTime="0.00" waitingCount="0" stopTime="0.00" timeLoss="4.20" rerouteNo="0" devices="tripinfo_E_N_35" vType="standard_car" speedFactor="1.02" vaporized=""/>
    <tripinfo id="E_N_37" depart="133.00" departLane="gneE0_2" departPos="3.10" departSpeed="10.00" departDelay="0.00" arrival="178.20" arrivalLane="-gneE1_0" arrivalPos="300.00" arrivalSpeed="14.97" duration="45.20" routeLength="605.77" waitingTime="0.00" waitingCount="0" stopTime="0.00" timeLoss="4.27" rerouteNo="0" devices="tripinfo_E_N_37" vType="standard_car" speedFactor="1.18" vaporized=""/>
    <tripinfo id="W_N_24" depart="103.00" departLane="gneE2_0" departPos="3.10" departSpeed="10.00" departDelay="0.00" arrival="178.40" arrivalLane="-gneE1_0" arrivalPos="300.00" arrivalSpeed="11.43" duration="75.40" routeLength="629.96" waitingTime="11.30" waitingCount="1" stopTime="0.00" timeLoss="19.97" rerouteNo="0" devices="tripinfo_W_N_24" vType="standard_car" speedFactor="0.83" vaporized=""/>
    <tripinfo id="E_W_20" depart="94.00" departLane="gneE0_3" departPos="3.10" departSpeed="10.00" departDelay="0.00" arrival="180.90" arrivalLane="-gneE2_1" arrivalPos="300.00" arrivalSpeed="14.09" duration="86.90" routeLength="628.90" waitingTime="28.30" waitingCount="1" stopTime="0.00" timeLoss="42.39" rerouteNo="0" devices="tripinfo_E_W_20" vType="standard_car" speedFactor="1.02" vaporized=""/>
    <tripinfo id="E_W_36" depart="130.00" departLane="gneE0_0" departPos="3.10" departSpeed="10.00" departDelay="0.00" arrival="182.80" arrivalLane="-gneE2_0" arrivalPos="300.00" arrivalSpeed="13.48" duration="52.80" routeLength="628.90" waitingTime="0.00" waitingCount="0" stopTime="0.00" timeLoss="6.21" rerouteNo="0" devices="tripinfo_E_W_36" vType="standard_car" speedFactor="0.97" vaporized=""/>
    <tripinfo id="E_W_23" depart="103.00" departLane="gneE0_2" departPos="3.10" departSpeed="10.00" departDelay="0.00" arrival="183.40" arrivalLane="-gneE2_2" arrivalPos="300.00" arrivalSpeed="12.35" duration="80.40" routeLength="628.90" waitingTime="19.10" waitingCount="1" stopTime="0.00" timeLoss="29.48" rerouteNo="0" devices="tripinfo_E_W_23" vType="standard_car" speedFactor="0.89" vaporized=""/>
    <tripinfo id="W_S_40" depart="137.00" departLane="gneE2_3" departPos="3.10" departSpeed="10.00" departDelay="0.00" arrival="184.50" arrivalLane="-gneE3_0" arrivalPos="300.00" arrivalSpeed="14.31" duration="47.50" routeLength="605.77" waitingTime="0.00" waitingCount="0" stopTime="0.00" timeLoss="4.39" rerouteNo="0" devices="tripinfo_W_S_40" vType="standard_car" speedFactor="1.03" vaporized=""/>
    <tripinfo id="N_W_41" depart="139.00" departLane="gneE1_3" departPos="3.10" departSpeed="10.00" departDelay="0.00" arrival="189.00" arrivalLane="-gneE2_0" arrivalPos="300.00" arrivalSpeed="13.25" duration="50.00" routeLength="605.77" waitingTime="0.00" waitingCount="0" stopTime="0.00" timeLoss="3.68" rerouteNo="0" devices="tripinfo_N_W_41" vType="standard_car" speedFactor="0.96" vaporized=""/>
    <tripinfo id="E_S_46" depart="144.00" departLane="gneE0_0" departPos="3.10" departSpeed="10.00" departDelay="0.00" arrival="193.60" arrivalLane="-gneE3_2" arrivalPos="300.00" arrivalSpeed="13.84" duration="49.60" routeLength="629.96" waitingTime="0.00" waitingCount="0" stopTime="0.00" timeLoss="3.67" rerouteNo="0" devices="tripinfo_E_S_46" vType="standard_car" speedFactor="1.00" vaporized=""/>
    <tripinfo id="N_S_30" depart="118.00" departLane="gneE1_1" departPos="3.10" departSpeed="10.00" departDelay="0.00" arrival="199.90" arrivalLane="-gneE3_1" arrivalPos="300.00" arrivalSpeed="14.96" duration="81.90" routeLength="628.90" waitingTime="27.40" waitingCount="1" stopTime="0.00" timeLoss="39.90" rerouteNo="0" devices="tripinfo_N_S_30" vType="standard_car" speedFactor="1.18" vaporized=""/>
    <tripinfo id="N_S_33" depart="124.00" departLane="gneE1_0" departPos="3.10" departSpeed="10.00" departDelay="0.00" arrival="200.20" arrivalLane="-gneE3_2" arrivalPos="300.00" arrivalSpeed="14.99" duration="76.20" routeLength="628.90" waitingTime="21.10" waitingCount="1" stopTime="0.00" timeLoss="34.27" rerouteNo="0" devices="tripinfo_N_S_33" vType="standard_car" speedFactor="1.17" vaporized=""/>
    <tripinfo id="S_N_42" depart="142.00" departLane="gneE3_2" departPos="3.10" departSpeed="10.00" departDelay="0.00" arrival="200.20" arrivalLane="-gneE1_2" arrivalPos="300.00" arrivalSpeed="14.96" duration="58.20" routeLength="628.90" waitingTime="3.40" waitingCount="1" stopTime="0.00" timeLoss="16.22" rerouteNo="0" devices="tripinfo_S_N_42" vType="standard_car" speedFactor="1.09" vaporized=""/>
    <tripinfo id="N_S_38" depart="133.00" departLane="gneE1_0" departPos="3.10" departSpeed="10.00" departDelay="0.00" arrival="201.50" arrivalLane="-gneE3_3" arrivalPos="300.00" arrivalSpeed="14.96" duration="68.50" routeLength="628.90" waitingTime="7.60" waitingCount="1" stopTime="0.00" timeLoss="26.48" rerouteNo="0" devices="tripinfo_N_S_38" vType="standard_car" speedFactor="1.10" vaporized=""/>
    <tripinfo id="S_N_29" depart="115.00" departLane="gneE3_3" departPos="3.10" departSpeed="10.00" departDelay="0.00" arrival="202.10" arrivalLane="-gneE1_0" arrivalPos="300.00" arrivalSpeed="12.93" duration="87.10" routeLength="628.90" waitingTime="28.20" waitingCount="1" stopTime="0.00" timeLoss="38.46" rerouteNo="0" devices="tripinfo_S_N_29" vType="standard_car" speedFactor="0.93" vaporized=""/>
    <tripinfo id="N_S_39" depart="133.00" departLane="gneE1_1" departPos="3.10" departSpeed="10.00" departDelay="0.00" arrival="204.10" arrivalLane="-gneE3_0" arrivalPos="300.00" arrivalSpeed="12.50" duration="71.10" routeLength="628.90" waitingTime="6.80" waitingCount="1" stopTime="0.00" timeLoss="20.79" rerouteNo="0" devices="tripinfo_N_S_39" vType="standard_car" speedFactor="0.90" vaporized=""/>
    <tripinfo id="N_S_52" depart="151.00" departLane="gneE1_3" departPos="3.10" departSpeed="10.00" departDelay="0.00" arrival="206.00" arrivalLane="-gneE3_1" arrivalPos="300.00" arrivalSpeed="14.08" duration="55.00" routeLength="628.90" waitingTime="0.00" waitingCount="0" stopTime="0.00" timeLoss="10.44" rerouteNo="0" devices="tripinfo_N_S_52" vType="standard_car" speedFactor="1.02" vaporized=""/>
    <tripinfo id="E_N_55" depart="162.00" departLane="gneE0_1" departPos="3.10" departSpeed="10.00" departDelay="0.00" arrival="210.40" arrivalLane="-gneE1_0" arrivalPos="300.00" arrivalSpeed="13.81" duration="48.40" routeLength="605.77" waitingTime="0.00" waitingCount="0" stopTime="0.00" timeLoss="3.89" rerouteNo="0" devices="tripinfo_E_N_55" vType="standard_car" speedFactor="1.00" vaporized=""/>
    <tripinfo id="W_E_45" depart="144.00" departLane="gneE2_1" departPos="3.10" departSpeed="10.00" departDelay="0.00" arrival="213.20" arrivalLane="-gneE0_1" arrivalPos="300.00" arrivalSpeed="14.97" duration="69.20" routeLength="628.90" waitingTime="16.50" waitingCount="1" stopTime="0.00" timeLoss="27.24" rerouteNo="0" devices="tripinfo_W_E_45" vType="standard_car" speedFactor="1.09" vaporized=""/>
    <tripinfo id="W_N_44" depart="144.00" departLane="gneE2_3" departPos="3.10" departSpeed="10.00" departDelay="0.00" arrival="213.50" arrivalLane="-gneE1_2" arrivalPos="300.00" arrivalSpeed="14.49" duration="69.50" routeLength="629.96" waitingTime="14.10" waitingCount="1" stopTime="0.00" timeLoss="25.67" rerouteNo="0" devices="tripinfo_W_N_44" vType="standard_car" speedFactor="1.04" vaporized=""/>
    <tripinfo id="W_E_53" depart="157.00" departLane="gneE2_2" departPos="3.10" departSpeed="10.00" departDelay="0.00" arrival="214.60" arrivalLane="-gneE0_1" arrivalPos="300.00" arrivalSpeed="14.96" duration="57.60" routeLength="628.90" waitingTime="0.00" waitingCount="0" stopTime="0.00" timeLoss="15.59" rerouteNo="0" devices="tripinfo_W_E_53" vType="standard_car" speedFactor="1.10" vaporized=""/>
    <tripinfo id="W_E_48" depart="146.00" departLane="gneE2_2" departPos="3.10" departSpeed="10.00" departDelay="0.00" arrival="217.70" arrivalLane="-gneE0_0" arrivalPos="300.00" arrivalSpeed="12.16" duration="71.70" routeLength="628.90" waitingTime="6.40" waitingCount="1" stopTime="0.00" timeLoss="20.04" rerouteNo="0" devices="tripinfo_W_E_48" vType="standard_car" speedFactor="0.88" vaporized=""/>
    <tripinfo id="E_S_51" depart="150.00" departLane="gneE0_1" departPos="3.10" departSpeed="10.00" departDelay="0.00" arrival="219.40" arrivalLane="-gneE3_3" arrivalPos="300.00" arrivalSpeed="14.95" duration="69.40" routeLength="625.12" waitingTime="15.20" waitingCount="1" stopTime="0.00" timeLoss="27.36" rerouteNo="0" devices="tripinfo_E_S_51" vType="standard_car" speedFactor="1.17" vaporized=""/>
    <tripinfo id="E_N_59" depart="170.00" departLane="gneE0_1" departPos="3.10" departSpeed="10.00" departDelay="0.00" arrival="219.50" arrivalLane="-gneE1_0" arrivalPos="300.00" arrivalSpeed="13.45" duration="49.50" routeLength="605.77" waitingTime="0.00" waitingCount="0" stopTime="0.00" timeLoss="3.71" rerouteNo="0" devices="tripinfo_E_N_59" vType="standard_car" speedFactor="0.97" vaporized=""/>
    <tripinfo id="E_S_54" depart="159.00" departLane="gneE0_1" departPos="3.10" departSpeed="10.00" departDelay="0.00" arrival="220.80" arrivalLane="-gneE3_1" arrivalPos="300.00" arrivalSpeed="13.91" duration="61.80" routeLength="629.96" waitingTime="5.20" waitingCount="1" stopTime="0.00" timeLoss="16.18" rerouteNo="0" devices="tripinfo_E_S_54" vType="standard_car" speedFactor="1.00" vaporized=""/>
    <tripinfo id="N_E_43" depart="143.00" departLane="gneE1_3" departPos="3.10" departSpeed="10.00" departDelay="0.00" arrival="223.40" arrivalLane="-gneE0_2" arrivalPos="300.00" arrivalSpeed="14.40" duration="80.40" routeLength="625.12" waitingTime="25.00" waitingCount="1" stopTime="0.00" timeLoss="36.46" rerouteNo="0" devices="tripinfo_N_E_43" vType="standard_car" speedFactor="1.04" vaporized=""/>
    <tripinfo id="N_E_61" depart="171.00" departLane="gneE1_3" departPos="3.10" departSpeed="10.00" departDelay="0.00" arrival="224.10" arrivalLane="-gneE0_2" arrivalPos="300.00" arrivalSpeed="14.98" duration="53.10" routeLength="625.12" waitingTime="0.00" waitingCount="0" stopTime="0.00" timeLoss="10.98" rerouteNo="0" devices="tripinfo_N_E_61" vType="standard_car" speedFactor="1.12" vaporized=""/>
    <tripinfo id="N_E_49" depart="147.00" departLane="gneE1_2" departPos="3.10" departSpeed="10.00" departDelay="0.00" arrival="227.00" arrivalLane="-gneE0_0" arrivalPos="300.00" arrivalSpeed="11.81" duration="80.00" routeLength="629.96" waitingTime="16.10" waitingCount="1" stopTime="0.00" timeLoss="26.20" rerouteNo="0" devices="tripinfo_N_E_49" vType="standard_car" speedFactor="0.85" vaporized=""/>
    <tripinfo id="N_E_50" depart="147.00" departLane="gneE1_3" departPos="3.10" departSpeed="10.00" departDelay="0.00" arrival="228.40" arrivalLane="-gneE0_2" arrivalPos="300.00" arrivalSpeed="11.84" duration="81.40" routeLength="629.96" waitingTime="14.90" waitingCount="1" stopTime="0.00" timeLoss="27.82" rerouteNo="0" devices="tripinfo_N_E_50" vType="standard_car" speedFactor="0.85" vaporized=""/>
    <tripinfo id="E_N_69" depart="181.00" departLane="gneE0_3" departPos="3.10" departSpeed="10.00" departDelay="0.00" arrival="228.60" arrivalLane="-gneE1_0" arrivalPos="300.00" arrivalSpeed="14.15" duration="47.60" routeLength="605.77" waitingTime="0.00" waitingCount="0" stopTime="0.00" timeLoss="4.23" rerouteNo="0" devices="tripinfo_E_N_69" vType="standard_car" speedFactor="1.02" vaporized=""/>
    <tripinfo id="S_N_62" depart="173.00" departLane="gneE3_3" departPos="3.10" departSpeed="10.00" departDelay="0.00" arrival="230.50" arrivalLane="-gneE1_1" arrivalPos="300.00" arrivalSpeed="14.10" duration="57.50" routeLength="628.90" waitingTime="1.30" waitingCount="1" stopTime="0.00" timeLoss="12.92" rerouteNo="0" devices="tripinfo_S_N_62" vType="standard_car" speedFactor="1.02" vaporized=""/>
    <tripinfo id="W_S_73" depart="184.00" departLane="gneE2_2" departPos="3.10" departSpeed="10.00" departDelay="0.00" arrival="230.50" arrivalLane="-gneE3_0" arrivalPos="300.00" arrivalSpeed="14.63" duration="46.50" routeLength="605.77" waitingTime="0.00" waitingCount="0" stopTime="0.00" timeLoss="4.46" rerouteNo="0" devices="tripinfo_W_S_73" vType="standard_car" speedFactor="1.06" vaporized=""/>
    <tripinfo id="W_E_66" depart="177.20" departLane="gneE2_1" departPos="3.10" departSpeed="10.00" departDelay="0.20" arrival="232.30" arrivalLane="-gneE0_1" arrivalPos="300.00" arrivalSpeed="12.55" duration="55.10" routeLength="628.90" waitingTime="0.00" waitingCount="0" stopTime="0.00" timeLoss="5.10" rerouteNo="0" devices="tripinfo_W_E_66" vType="standard_car" speedFactor="0.91" vaporized=""/>
    <tripinfo id="S_N_56" depart="164.00" departLane="gneE3_3" departPos="3.10" departSpeed="10.00" departDelay="0.00" arrival="232.60" arrivalLane="-gneE1_0" arrivalPos="300.00" arrivalSpeed="12.44" duration="68.60" routeLength="628.90" waitingTime="8.20" waitingCount="1" stopTime="0.00" timeLoss="18.14" rerouteNo="0" devices="tripinfo_S_N_56" vType="standard_car" speedFactor="0.90" vaporized=""/>
    <tripinfo id="S_E_76" depart="186.00" departLane="gneE3_3" departPos="3.10" departSpeed="10.00" departDelay="0.00" arrival="233.30" arrivalLane="-gneE0_0" arrivalPos="300.00" arrivalSpeed="14.30" duration="47.30" routeLength="605.77" waitingTime="0.00" waitingCount="0" stopTime="0.00" timeLoss="4.31" rerouteNo="0" devices="tripinfo_S_E_76" vType="standard_car" speedFactor="1.03" vaporized=""/>
    <tripinfo id="W_S_75" depart="185.10" departLane="gneE2_1" departPos="3.10" departSpeed="10.00" departDelay="0.10" arrival="234.30" arrivalLane="-gneE3_0" arrivalPos="300.00" arrivalSpeed="13.65" duration="49.20" routeLength="605.77" waitingTime="0.00" waitingCount="0" stopTime="0.00" timeLoss="4.14" rerouteNo="0" devices="tripinfo_W_S_75" vType="standard_car" speedFactor="0.98" vaporized=""/>
    <tripinfo id="W_E_64" depart="176.00" departLane="gneE2_1" departPos="3.10" departSpeed="10.00" departDelay="0.00" arrival="235.30" arrivalLane="-gneE0_1" arrivalPos="300.00" arrivalSpeed="13.00" duration="59.30" routeLength="628.90" waitingTime="0.30" waitingCount="1" stopTime="0.00" timeLoss="10.94" rerouteNo="0" devices="tripinfo_W_E_64" vType="standard_car" speedFactor="0.94" vaporized=""/>
    <tripinfo id="E_S_60" depart="171.00" departLane="gneE0_2" departPos="3.10" departSpeed="10.00" departDelay="0.00" arrival="236.60" arrivalLane="-gneE3_2" arrivalPos="300.00" arrivalSpeed="14.98" duration="65.60" routeLength="629.96" waitingTime="10.30" waitingCount="1" stopTime="0.00" timeLoss="23.22" rerouteNo="0" devices="tripinfo_E_S_60" vType="standard_car" speedFactor="1.08" vaporized=""/>
    <tripinfo id="W_S_74" depart="185.00" departLane="gneE2_3" departPos="3.10" departSpeed="10.00" departDelay="0.00" arrival="237.00" arrivalLane="-gneE3_0" arrivalPos="300.00" arrivalSpeed="13.24" duration="52.00" routeLength="605.77" waitingTime="0.00" waitingCount="0" stopTime="0.00" timeLoss="5.49" rerouteNo="0" devices="tripinfo_W_S_74" vType="standard_car" speedFactor="0.96" vaporized=""/>
    <tripinfo id="E_S_70" depart="182.00" departLane="gneE0_0" departPos="3.10" departSpeed="10.00" departDelay="0.00" arrival="237.30" arrivalLane="-gneE3_3" arrivalPos="300.00" arrivalSpeed="14.20" duration="55.30" routeLength="625.12" waitingTime="0.00" waitingCount="0" stopTime="0.00" timeLoss="10.74" rerouteNo="0" devices="tripinfo_E_S_70" vType="standard_car" speedFactor="1.02" vaporized=""/>
    <tripinfo id="E_N_79" depart="192.00" departLane="gneE0_2" departPos="3.10" departSpeed="10.00" departDelay="0.00" arrival="237.70" arrivalLane="-gneE1_0" arrivalPos="300.00" arrivalSpeed="15.00" duration="45.70" routeLength="605.77" waitingTime="0.00" waitingCount="0" stopTime="0.00" timeLoss="4.61" rerouteNo="0" devices="tripinfo_E_N_79" vType="standard_car" speedFactor="1.09" vaporized=""/>
    <tripinfo id="S_E_78" depart="192.00" departLane="gneE3_1" departPos="3.10" departSpeed="10.00" departDelay="0.00" arrival="240.10" arrivalLane="-gneE0_0" arrivalPos="300.00" arrivalSpeed="13.97" duration="48.10" routeLength="605.77" waitingTime="0.00" waitingCount="0" stopTime="0.00" timeLoss="4.05" rerouteNo="0" devices="tripinfo_S_E_78" vType="standard_car" speedFactor="1.01" vaporized=""/>
    <tripinfo id="N_E_71" depart="182.00" departLane="gneE1_0" departPos="3.10" departSpeed="10.00" departDelay="0.00" arrival="240.80" arrivalLane="-gneE0_2" arrivalPos="300.00" arrivalSpeed="13.50" duration="58.80" routeLength="625.12" waitingTime="0.40" waitingCount="1" stopTime="0.00" timeLoss="12.01" rerouteNo="0" devices="tripinfo_N_E_71" vType="standard_car" speedFactor="0.97" vaporized=""/>
    <tripinfo id="S_W_77" depart="188.00" departLane="gneE3_2" departPos="3.10" departSpeed="10.00" departDelay="0.00" arrival="240.80" arrivalLane="-gneE2_2" arrivalPos="300.00" arrivalSpeed="13.61" duration="52.80" routeLength="625.12" waitingTime="0.00" waitingCount="0" stopTime="0.00" timeLoss="6.40" rerouteNo="0" devices="tripinfo_S_W_77" vType="standard_car" speedFactor="0.98" vaporized=""/>