<?xml version="1.0" encoding="UTF-8"?>

<!-- generated on 2021-12-03 11:21:47 by Eclipse SUMO sumo Version 1.10.0
<configuration xmlns:xsi="http://www.w3.org/2001/XMLSchema-instance" xsi:noNamespaceSchemaLocation="http://sumo.dlr.de/xsd/sumoConfiguration.xsd">

    <input>
        <net-file value="../net/netFile/dynamicNet.net.xml"/>
        <route-files value="../net/netFile/dynamic_low_net.rou.xml"/>
    </input>

    <output>
        <tripinfo-output value="tripinfo.xml"/>
    </output>

    <time>
        <begin value="0"/>
        <step-length value="0.1"/>
    </time>

    <processing>
        <time-to-teleport value="-1"/>
        <waiting-time-memory value="15"/>
    </processing>

    <traci_server>
        <remote-port value="64880"/>
    </traci_server>

    <gui_only>
        <quit-on-end value="true"/>
        <start value="true"/>
        <tracker-interval value="0.1"/>
    </gui_only>

</configuration>
-->

<tripinfos xmlns:xsi="http://www.w3.org/2001/XMLSchema-instance" xsi:noNamespaceSchemaLocation="http://sumo.dlr.de/xsd/tripinfo_file.xsd">
    <tripinfo id="E_W_0" depart="28.00" departLane="gneE0_2" departPos="3.10" departSpeed="10.00" departDelay="0.00" arrival="71.80" arrivalLane="-gneE2_1" arrivalPos="300.00" arrivalSpeed="14.71" duration="43.80" routeLength="628.90" waitingTime="0.00" waitingCount="0" stopTime="0.00" timeLoss="1.02" rerouteNo="0" devices="tripinfo_E_W_0" vType="standard_car" speedFactor="1.06" vaporized=""/>
    <tripinfo id="S_W_2" depart="44.00" departLane="gneE3_3" departPos="3.10" departSpeed="10.00" departDelay="0.00" arrival="90.40" arrivalLane="-gneE2_2" arrivalPos="300.00" arrivalSpeed="14.01" duration="46.40" routeLength="629.96" waitingTime="0.00" waitingCount="0" stopTime="0.00" timeLoss="1.06" rerouteNo="0" devices="tripinfo_S_W_2" vType="standard_car" speedFactor="1.01" vaporized=""/>
    <tripinfo id="E_W_1" depart="32.00" departLane="gneE0_1" departPos="3.10" departSpeed="10.00" departDelay="0.00" arrival="93.50" arrivalLane="-gneE2_0" arrivalPos="300.00" arrivalSpeed="13.00" duration="61.50" routeLength="628.90" waitingTime="2.40" waitingCount="1" stopTime="0.00" timeLoss="13.20" rerouteNo="0" devices="tripinfo_E_W_1" vType="standard_car" speedFactor="0.94" vaporized=""/>
    <tripinfo id="S_W_4" depart="48.00" departLane="gneE3_3" departPos="3.10" departSpeed="10.00" departDelay="0.00" arrival="94.20" arrivalLane="-gneE2_2" arrivalPos="300.00" arrivalSpeed="14.27" duration="46.20" routeLength="629.96" waitingTime="0.00" waitingCount="0" stopTime="0.00" timeLoss="1.75" rerouteNo="0" devices="tripinfo_S_W_4" vType="standard_car" speedFactor="1.03" vaporized=""/>
    <tripinfo id="N_S_5" depart="50.00" departLane="gneE1_2" departPos="3.10" departSpeed="10.00" departDelay="0.00" arrival="104.80" arrivalLane="-gneE3_0" arrivalPos="300.00" arrivalSpeed="11.53" duration="54.80" routeLength="628.90" waitingTime="0.00" waitingCount="0" stopTime="0.00" timeLoss="0.26" rerouteNo="0" devices="tripinfo_N_S_5" vType="standard_car" speedFactor="0.83" vaporized=""/>
    <tripinfo id="E_S_3" depart="46.00" departLane="gneE0_3" departPos="3.10" departSpeed="10.00" departDelay="0.00" arrival="113.80" arrivalLane="-gneE3_3" arrivalPos="300.00" arrivalSpeed="14.95" duration="67.80" routeLength="625.12" waitingTime="13.30" waitingCount="1" stopTime="0.00" timeLoss="25.61" rerouteNo="0" devices="tripinfo_E_S_3" vType="standard_car" speedFactor="1.08" vaporized=""/>
    <tripinfo id="E_W_6" depart="57.00" departLane="gneE0_0" departPos="3.10" departSpeed="10.00" departDelay="0.00" arrival="114.50" arrivalLane="-gneE2_1" arrivalPos="300.00" arrivalSpeed="14.52" duration="57.50" routeLength="628.90" waitingTime="1.90" waitingCount="1" stopTime="0.00" timeLoss="14.18" rerouteNo="0" devices="tripinfo_E_W_6" vType="standard_car" speedFactor="1.05" vaporized=""/>
    <tripinfo id="N_S_7" depart="66.00" departLane="gneE1_2" departPos="3.10" departSpeed="10.00" departDelay="0.00" arrival="128.40" arrivalLane="-gneE3_0" arrivalPos="300.00" arrivalSpeed="12.27" duration="62.40" routeLength="628.90" waitingTime="1.50" waitingCount="1" stopTime="0.00" timeLoss="11.30" rerouteNo="0" devices="tripinfo_N_S_7" vType="standard_car" speedFactor="0.89" vaporized=""/>
    <tripinfo id="E_S_8" depart="74.00" departLane="gneE0_1" departPos="3.10" departSpeed="10.00" departDelay="0.00" arrival="130.40" arrivalLane="-gneE3_1" arrivalPos="300.00" arrivalSpeed="13.00" duration="56.40" routeLength="629.96" waitingTime="0.00" waitingCount="0" stopTime="0.00" timeLoss="7.64" rerouteNo="0" devices="tripinfo_E_S_8" vType="standard_car" speedFactor="0.94" vaporized=""/>
    <tripinfo id="S_W_9" depart="82.00" departLane="gneE3_3" departPos="3.10" departSpeed="10.00" departDelay="0.00" arrival="135.90" arrivalLane="-gneE2_1" arrivalPos="300.00" arrivalSpeed="11.88" duration="53.90" routeLength="629.96" waitingTime="0.00" waitingCount="0" stopTime="0.00" timeLoss="0.47" rerouteNo="0" devices="tripinfo_S_W_9" vType="standard_car" speedFactor="0.86" vaporized=""/>
    <tripinfo id="S_W_10" depart="93.00" departLane="gneE3_3" departPos="3.10" departSpeed="10.00" departDelay="0.00" arrival="136.80" arrivalLane="-gneE2_2" arrivalPos="300.00" arrivalSpeed="14.95" duration="43.80" routeLength="629.96" waitingTime="0.00" waitingCount="0" stopTime="0.00" timeLoss="1.42" rerouteNo="0" devices="tripinfo_S_W_10" vType="standard_car" speedFactor="1.09" vaporized=""/>
    <tripinfo id="W_E_11" depart="96.00" departLane="gneE2_1" departPos="3.10" departSpeed="10.00" departDelay="0.00" arrival="141.10" arrivalLane="-gneE0_1" arrivalPos="300.00" arrivalSpeed="14.21" duration="45.10" routeLength="628.90" waitingTime="0.00" waitingCount="0" stopTime="0.00" timeLoss="0.90" rerouteNo="0" devices="tripinfo_W_E_11" vType="standard_car" speedFactor="1.03" vaporized=""/>
    <tripinfo id="S_E_13" depart="101.00" departLane="gneE3_1" departPos="3.10" departSpeed="10.00" departDelay="0.00" arrival="146.30" arrivalLane="-gneE0_0" arrivalPos="300.00" arrivalSpeed="14.99" duration="45.30" routeLength="605.77" waitingTime="0.00" waitingCount="0" stopTime="0.00" timeLoss="4.27" rerouteNo="0" devices="tripinfo_S_E_13" vType="standard_car" speedFactor="1.12" vaporized=""/>
    <tripinfo id="E_N_14" depart="103.00" departLane="gneE0_3" departPos="3.10" departSpeed="10.00" departDelay="0.00" arrival="151.60" arrivalLane="-gneE1_0" arrivalPos="300.00" arrivalSpeed="13.72" duration="48.60" routeLength="605.77" waitingTime="0.00" waitingCount="0" stopTime="0.00" timeLoss="3.86" rerouteNo="0" devices="tripinfo_E_N_14" vType="standard_car" speedFactor="0.99" vaporized=""/>
    <tripinfo id="N_S_12" depart="99.00" departLane="gneE1_1" departPos="3.10" departSpeed="10.00" departDelay="0.00" arrival="157.20" arrivalLane="-gneE3_0" arrivalPos="300.00" arrivalSpeed="14.52" duration="58.20" routeLength="628.90" waitingTime="2.80" waitingCount="1" stopTime="0.00" timeLoss="14.91" rerouteNo="0" devices="tripinfo_N_S_12" vType="standard_car" speedFactor="1.05" vaporized=""/>
    <tripinfo id="S_W_17" depart="106.00" departLane="gneE3_2" departPos="3.10" departSpeed="10.00" departDelay="0.00" arrival="170.50" arrivalLane="-gneE2_2" arrivalPos="300.00" arrivalSpeed="13.07" duration="64.50" routeLength="625.12" waitingTime="5.60" waitingCount="1" stopTime="0.00" timeLoss="16.14" rerouteNo="0" devices="tripinfo_S_W_17" vType="standard_car" speedFactor="0.94" vaporized=""/>
    <tripinfo id="S_W_16" depart="104.00" departLane="gneE3_3" departPos="3.10" departSpeed="10.00" departDelay="0.00" arrival="171.60" arrivalLane="-gneE2_1" arrivalPos="300.00" arrivalSpeed="12.16" duration="67.60" routeLength="629.96" waitingTime="6.50" waitingCount="1" stopTime="0.00" timeLoss="15.51" rerouteNo="0" devices="tripinfo_S_W_16" vType="standard_car" speedFactor="0.88" vaporized=""/>
    <tripinfo id="E_W_15" depart="103.10" departLane="gneE0_1" departPos="3.10" departSpeed="10.00" departDelay="0.10" arrival="175.70" arrivalLane="-gneE2_0" arrivalPos="300.00" arrivalSpeed="12.83" duration="72.60" routeLength="628.90" waitingTime="13.00" waitingCount="1" stopTime="0.00" timeLoss="23.75" rerouteNo="0" devices="tripinfo_E_W_15" vType="standard_car" speedFactor="0.93" vaporized=""/>
    <tripinfo id="W_N_18" depart="122.00" departLane="gneE2_0" departPos="3.10" departSpeed="10.00" departDelay="0.00" arrival="183.60" arrivalLane="-gneE1_2" arrivalPos="300.00" arrivalSpeed="13.00" duration="61.60" routeLength="625.12" waitingTime="2.90" waitingCount="1" stopTime="0.00" timeLoss="12.98" rerouteNo="0" devices="tripinfo_W_N_18" vType="standard_car" speedFactor="0.94" vaporized=""/>
    <tripinfo id="N_S_21" depart="138.00" departLane="gneE1_0" departPos="3.10" departSpeed="10.00" departDelay="0.00" arrival="185.10" arrivalLane="-gneE3_2" arrivalPos="300.00" arrivalSpeed="14.03" duration="47.10" routeLength="628.90" waitingTime="0.00" waitingCount="0" stopTime="0.00" timeLoss="2.25" rerouteNo="0" devices="tripinfo_N_S_21" vType="standard_car" speedFactor="1.01" vaporized=""/>
    <tripinfo id="N_S_19" depart="127.00" departLane="gneE1_3" departPos="3.10" departSpeed="10.00" departDelay="0.00" arrival="191.80" arrivalLane="-gneE3_1" arrivalPos="300.00" arrivalSpeed="14.99" duration="64.80" routeLength="628.90" waitingTime="10.10" waitingCount="1" stopTime="0.00" timeLoss="22.79" rerouteNo="0" devices="tripinfo_N_S_19" vType="standard_car" speedFactor="1.16" vaporized=""/>
    <tripinfo id="N_E_24" depart="147.00" departLane="gneE1_3" departPos="3.10" departSpeed="10.00" departDelay="0.00" arrival="204.40" arrivalLane="-gneE0_1" arrivalPos="300.00" arrivalSpeed="11.46" duration="57.40" routeLength="629.96" waitingTime="0.00" waitingCount="0" stopTime="0.00" timeLoss="1.98" rerouteNo="0" devices="tripinfo_N_E_24" vType="standard_car" speedFactor="0.83" vaporized=""/>
    <tripinfo id="S_W_20" depart="132.00" departLane="gneE3_0" departPos="3.10" departSpeed="10.00" departDelay="0.00" arrival="208.50" arrivalLane="-gneE2_2" arrivalPos="300.00" arrivalSpeed="14.14" duration="76.50" routeLength="629.96" waitingTime="20.70" waitingCount="1" stopTime="0.00" timeLoss="31.59" rerouteNo="0" devices="tripinfo_S_W_20" vType="standard_car" speedFactor="1.02" vaporized=""/>
    <tripinfo id="S_W_22" depart="141.00" departLane="gneE3_2" departPos="3.10" departSpeed="10.00" departDelay="0.00" arrival="209.50" arrivalLane="-gneE2_3" arrivalPos="300.00" arrivalSpeed="13.53" duration="68.50" routeLength="625.12" waitingTime="11.00" waitingCount="1" stopTime="0.00" timeLoss="21.79" rerouteNo="0" devices="tripinfo_S_W_22" vType="standard_car" speedFactor="0.98" vaporized=""/>
    <tripinfo id="S_N_23" depart="144.00" departLane="gneE3_0" departPos="3.10" departSpeed="10.00" departDelay="0.00" arrival="211.20" arrivalLane="-gneE1_0" arrivalPos="300.00" arrivalSpeed="12.34" duration="67.20" routeLength="628.90" waitingTime="6.40" waitingCount="1" stopTime="0.00" timeLoss="16.28" rerouteNo="0" devices="tripinfo_S_N_23" vType="standard_car" speedFactor="0.89" vaporized=""/>
    <tripinfo id="N_W_27" depart="162.00" departLane="gneE1_0" departPos="3.10" departSpeed="10.00" departDelay="0.00" arrival="212.40" arrivalLane="-gneE2_0" arrivalPos="300.00" arrivalSpeed="13.16" duration="50.40" routeLength="605.77" waitingTime="0.00" waitingCount="0" stopTime="0.00" timeLoss="3.60" rerouteNo="0" devices="tripinfo_N_W_27" vType="standard_car" speedFactor="0.95" vaporized=""/>
    <tripinfo id="N_S_31" depart="174.00" departLane="gneE1_2" departPos="3.10" departSpeed="10.00" departDelay="0.00" arrival="217.10" arrivalLane="-gneE3_1" arrivalPos="300.00" arrivalSpeed="14.97" duration="43.10" routeLength="628.90" waitingTime="0.00" waitingCount="0" stopTime="0.00" timeLoss="1.17" rerouteNo="0" devices="tripinfo_N_S_31" vType="standard_car" speedFactor="1.15" vaporized=""/>
    <tripinfo id="N_E_28" depart="164.00" departLane="gneE1_3" departPos="3.10" departSpeed="10.00" departDelay="0.00" arrival="222.90" arrivalLane="-gneE0_3" arrivalPos="300.00" arrivalSpeed="14.97" duration="58.90" routeLength="625.12" waitingTime="4.50" waitingCount="1" stopTime="0.00" timeLoss="16.79" rerouteNo="0" devices="tripinfo_N_E_28" vType="standard_car" speedFactor="1.13" vaporized=""/>
    <tripinfo id="W_E_25" depart="155.00" departLane="gneE2_1" departPos="3.10" departSpeed="10.00" departDelay="0.00" arrival="223.10" arrivalLane="-gneE0_0" arrivalPos="300.00" arrivalSpeed="12.12" duration="68.10" routeLength="628.90" waitingTime="6.70" waitingCount="1" stopTime="0.00" timeLoss="16.19" rerouteNo="0" devices="tripinfo_W_E_25" vType="standard_car" speedFactor="0.87" vaporized=""/>
    <tripinfo id="N_S_26" depart="156.00" departLane="gneE1_2" departPos="3.10" departSpeed="10.00" departDelay="0.00" arrival="225.70" arrivalLane="-gneE3_0" arrivalPos="300.00" arrivalSpeed="12.71" duration="69.70" routeLength="628.90" waitingTime="10.00" waitingCount="1" stopTime="0.00" timeLoss="20.31" rerouteNo="0" devices="tripinfo_N_S_26" vType="standard_car" speedFactor="0.92" vaporized=""/>
    <tripinfo id="E_W_36" depart="183.00" departLane="gneE0_2" departPos="3.10" departSpeed="10.00" departDelay="0.00" arrival="230.30" arrivalLane="-gneE2_1" arrivalPos="300.00" arrivalSpeed="13.49" duration="47.30" routeLength="628.90" waitingTime="0.00" waitingCount="0" stopTime="0.00" timeLoss="0.76" rerouteNo="0" devices="tripinfo_E_W_36" vType="standard_car" speedFactor="0.97" vaporized=""/>
    <tripinfo id="E_S_29" depart="170.00" departLane="gneE0_1" departPos="3.10" departSpeed="10.00" departDelay="0.00" arrival="230.60" arrivalLane="-gneE3_1" arrivalPos="300.00" arrivalSpeed="12.90" duration="60.60" routeLength="629.96" waitingTime="1.40" waitingCount="1" stopTime="0.00" timeLoss="11.41" rerouteNo="0" devices="tripinfo_E_S_29" vType="standard_car" speedFactor="0.93" vaporized=""/>
    <tripinfo id="W_E_32" depart="177.00" departLane="gneE2_0" departPos="3.10" departSpeed="10.00" departDelay="0.00" arrival="237.20" arrivalLane="-gneE0_0" arrivalPos="300.00" arrivalSpeed="13.96" duration="60.20" routeLength="628.90" waitingTime="2.00" waitingCount="1" stopTime="0.00" timeLoss="15.09" rerouteNo="0" devices="tripinfo_W_E_32" vType="standard_car" speedFactor="1.01" vaporized=""/>
    <tripinfo id="N_E_40" depart="189.00" departLane="gneE1_3" departPos="3.10" departSpeed="10.00" departDelay="0.00" arrival="237.80" arrivalLane="-gneE0_2" arrivalPos="300.00" arrivalSpeed="14.26" duration="48.80" routeLength="629.96" waitingTime="0.00" waitingCount="0" stopTime="0.00" timeLoss="4.40" rerouteNo="0" devices="tripinfo_N_E_40" vType="standard_car" speedFactor="1.03" vaporized=""/>
    <tripinfo id="E_S_35" depart="182.00" departLane="gneE0_0" departPos="3.10" departSpeed="10.00" departDelay="0.00" arrival="240.20" arrivalLane="-gneE3_1" arrivalPos="300.00" arrivalSpeed="14.14" duration="58.20" routeLength="629.96" waitingTime="0.50" waitingCount="1" stopTime="0.00" timeLoss="13.30" rerouteNo="0" devices="tripinfo_E_S_35" vType="standard_car" speedFactor="1.02" vaporized=""/>
    <tripinfo id="E_S_37" depart="184.00" departLane="gneE0_0" departPos="3.10" departSpeed="10.00" departDelay="0.00" arrival="240.50" arrivalLane="-gneE3_3" arrivalPos="300.00" arrivalSpeed="14.96" duration="56.50" routeLength="625.12" waitingTime="1.90" waitingCount="1" stopTime="0.00" timeLoss="14.52" rerouteNo="0" devices="tripinfo_E_S_37" vType="standard_car" speedFactor="1.18" vaporized=""/>
    <tripinfo id="E_S_44" depart="194.00" departLane="gneE0_1" departPos="3.10" departSpeed="10.00" departDelay="0.00" arrival="243.50" arrivalLane="-gneE3_2" arrivalPos="300.00" arrivalSpeed="14.47" duration="49.50" routeLength="629.96" waitingTime="0.00" waitingCount="0" stopTime="0.00" timeLoss="5.61" rerouteNo="0" devices="tripinfo_E_S_44" vType="standard_car" speedFactor="1.04" vaporized=""/>
    <tripinfo id="E_S_38" depart="186.00" departLane="gneE0_1" departPos="3.10" departSpeed="10.00" departDelay="0.00" arrival="248.00" arrivalLane="-gneE3_3" arrivalPos="300.00" arrivalSpeed="14.96" duration="62.00" routeLength="625.12" waitingTime="7.40" waitingCount="1" stopTime="0.00" timeLoss="19.84" rerouteNo="0" devices="tripinfo_E_S_38" vType="standard_car" speedFactor="1.10" vaporized=""/>
    <tripinfo id="W_E_41" depart="190.00" departLane="gneE2_2" departPos="3.10" departSpeed="10.00" departDelay="0.00" arrival="253.10" arrivalLane="-gneE0_1" arrivalPos="300.00" arrivalSpeed="13.29" duration="63.10" routeLength="628.90" waitingTime="4.60" waitingCount="1" stopTime="0.00" timeLoss="15.75" rerouteNo="0" devices="tripinfo_W_E_41" vType="standard_car" speedFactor="0.96" vaporized=""/>
    <tripinfo id="W_E_39" depart="187.00" departLane="gneE2_3" departPos="3.10" departSpeed="10.00" departDelay="0.00" arrival="254.30" arrivalLane="-gneE0_0" arrivalPos="300.00" arrivalSpeed="12.47" duration="67.30" routeLength="628.90" waitingTime="6.90" waitingCount="1" stopTime="0.00" timeLoss="16.99" rerouteNo="0" devices="tripinfo_W_E_39" vType="standard_car" speedFactor="0.90" vaporized=""/>
    <tripinfo id="N_S_46" depart="202.00" departLane="gneE1_1" departPos="3.10" departSpeed="10.00" departDelay="0.00" arrival="259.00" arrivalLane="-gneE3_0" arrivalPos="300.00" arrivalSpeed="13.84" duration="57.00" routeLength="628.90" waitingTime="0.10" waitingCount="1" stopTime="0.00" timeLoss="11.58" rerouteNo="0" devices="tripinfo_N_S_46" vType="standard_car" speedFactor="1.00" vaporized=""/>
    <tripinfo id="N_E_48" depart="206.00" departLane="gneE1_2" departPos="3.10" departSpeed="10.00" departDelay="0.00" arrival="260.70" arrivalLane="-gneE0_1" arrivalPos="300.00" arrivalSpeed="12.17" duration="54.70" routeLength="629.96" waitingTime="0.00" waitingCount="0" stopTime="0.00" timeLoss="2.49" rerouteNo="0" devices="tripinfo_N_E_48" vType="standard_car" speedFactor="0.88" vaporized=""/>
    <tripinfo id="N_E_51" depart="217.00" departLane="gneE1_1" departPos="3.10" departSpeed="10.00" departDelay="0.00" arrival="261.30" arrivalLane="-gneE0_3" arrivalPos="300.00" arrivalSpeed="14.99" duration="44.30" routeLength="625.12" waitingTime="0.00" waitingCount="0" stopTime="0.00" timeLoss="2.27" rerouteNo="0" devices="tripinfo_N_E_51" vType="standard_car" speedFactor="1.17" vaporized=""/>
    <tripinfo id="N_W_54" depart="224.00" departLane="gneE1_1" departPos="3.10" departSpeed="10.00" departDelay="0.00" arrival="272.30" arrivalLane="-gneE2_0" arrivalPos="300.00" arrivalSpeed="13.89" duration="48.30" routeLength="605.77" waitingTime="0.00" waitingCount="0" stopTime="0.00" timeLoss="4.00" rerouteNo="0" devices="tripinfo_N_W_54" vType="standard_car" speedFactor="1.00" vaporized=""/>
    <tripinfo id="N_E_53" depart="223.00" departLane="gneE1_2" departPos="3.10" departSpeed="10.00" departDelay="0.00" arrival="273.90" arrivalLane="-gneE0_3" arrivalPos="300.00" arrivalSpeed="14.98" duration="50.90" routeLength="625.12" waitingTime="0.00" waitingCount="0" stopTime="0.00" timeLoss="8.70" rerouteNo="0" devices="tripinfo_N_E_53" vType="standard_car" speedFactor="1.10" vaporized=""/>
    <tripinfo id="N_E_56" depart="226.00" departLane="gneE1_3" departPos="3.10" departSpeed="10.00" departDelay="0.00" arrival="278.00" arrivalLane="-gneE0_2" arrivalPos="300.00" arrivalSpeed="12.47" duration="52.00" routeLength="625.12" waitingTime="0.00" waitingCount="0" stopTime="0.00" timeLoss="1.30" rerouteNo="0" devices="tripinfo_N_E_56" vType="standard_car" speedFactor="0.90" vaporized=""/>
    <tripinfo id="N_S_52" depart="219.00" departLane="gneE1_3" departPos="3.10" departSpeed="10.00" departDelay="0.00" arrival="278.50" arrivalLane="-gneE3_1" arrivalPos="300.00" arrivalSpeed="14.09" duration="59.50" routeLength="628.90" waitingTime="2.80" waitingCount="1" stopTime="0.00" timeLoss="14.97" rerouteNo="0" devices="tripinfo_N_S_52" vType="standard_car" speedFactor="1.02" vaporized=""/>
    <tripinfo id="N_S_50" depart="216.00" departLane="gneE1_3" departPos="3.10" departSpeed="10.00" departDelay="0.00" arrival="281.40" arrivalLane="-gneE3_0" arrivalPos="300.00" arrivalSpeed="11.85" duration="65.40" routeLength="628.90" waitingTime="2.90" waitingCount="1" stopTime="0.00" timeLoss="12.35" rerouteNo="0" devices="tripinfo_N_S_50" vType="standard_car" speedFactor="0.85" vaporized=""/>
    <tripinfo id="N_W_63" depart="235.00" departLane="gneE1_3" departPos="3.10" departSpeed="10.00" departDelay="0.00" arrival="283.80" arrivalLane="-gneE2_0" arrivalPos="300.00" arrivalSpeed="13.67" duration="48.80" routeLength="605.77" waitingTime="0.00" waitingCount="0" stopTime="0.00" timeLoss="3.86" rerouteNo="0" devices="tripinfo_N_W_63" vType="standard_car" speedFactor="0.99" vaporized=""/>
    <tripinfo id="E_N_64" depart="238.00" departLane="gneE0_1" departPos="3.10" departSpeed="10.00" departDelay="0.00" arrival="288.80" arrivalLane="-gneE1_0" arrivalPos="300.00" arrivalSpeed="12.97" duration="50.80" routeLength="605.77" waitingTime="0.00" waitingCount="0" stopTime="0.00" timeLoss="3.52" rerouteNo="0" devices="tripinfo_E_N_64" vType="standard_car" speedFactor="0.94" vaporized=""/>
    <tripinfo id="E_S_61" depart="234.00" departLane="gneE0_3" departPos="3.10" departSpeed="10.00" departDelay="0.00" arrival="290.50" arrivalLane="-gneE3_2" arrivalPos="300.00" arrivalSpeed="15.00" duration="56.50" routeLength="629.96" waitingTime="2.00" waitingCount="1" stopTime="0.00" timeLoss="14.20" rerouteNo="0" devices="tripinfo_E_S_61" vType="standard_car" speedFactor="1.12" vaporized=""/>
    <tripinfo id="E_W_58" depart="228.00" departLane="gneE0_1" departPos="3.10" departSpeed="10.00" departDelay="0.00" arrival="291.20" arrivalLane="-gneE2_0" arrivalPos="300.00" arrivalSpeed="14.17" duration="63.20" routeLength="628.90" waitingTime="7.30" waitingCount="1" stopTime="0.00" timeLoss="18.93" rerouteNo="0" devices="tripinfo_E_W_58" vType="standard_car" speedFactor="1.02" vaporized=""/>
    <tripinfo id="N_E_65" depart="238.00" departLane="gneE1_0" departPos="3.10" departSpeed="10.00" departDelay="0.00" arrival="300.20" arrivalLane="-gneE0_2" arrivalPos="300.00" arrivalSpeed="12.24" duration="62.20" routeLength="625.12" waitingTime="1.20" waitingCount="1" stopTime="0.00" timeLoss="10.57" rerouteNo="0" devices="tripinfo_N_E_65" vType="standard_car" speedFactor="0.88" vaporized=""/>
    <tripinfo id="S_W_33" depart="178.00" departLane="gneE3_3" departPos="3.10" departSpeed="10.00" departDelay="0.00" arrival="300.40" arrivalLane="-gneE2_3" arrivalPos="300.00" arrivalSpeed="14.95" duration="122.40" routeLength="625.12" waitingTime="67.90" waitingCount="1" stopTime="0.00" timeLoss="80.36" rerouteNo="0" devices="tripinfo_S_W_33" vType="standard_car" speedFactor="1.17" vaporized=""/>
    <tripinfo id="S_W_42" depart="193.00" departLane="gneE3_3" departPos="3.10" departSpeed="10.00" departDelay="0.00" arrival="300.40" arrivalLane="-gneE2_2" arrivalPos="300.00" arrivalSpeed="14.97" duration="107.40" routeLength="629.96" waitingTime="52.90" waitingCount="1" stopTime="0.00" timeLoss="65.00" rerouteNo="0" devices="tripinfo_S_W_42" vType="standard_car" speedFactor="1.09" vaporized=""/>
    <tripinfo id="S_N_30" depart="173.00" departLane="gneE3_1" departPos="3.10" departSpeed="10.00" departDelay="0.00" arrival="300.70" arrivalLane="-gneE1_1" arrivalPos="300.00" arrivalSpeed="14.99" duration="127.70" routeLength="628.90" waitingTime="72.90" waitingCount="1" stopTime="0.00" timeLoss="85.70" rerouteNo="0" devices="tripinfo_S_N_30" vType="standard_car" speedFactor="1.18" vaporized=""/>
    <tripinfo id="S_N_45" depart="201.00" departLane="gneE3_0" departPos="3.10" departSpeed="10.00" departDelay="0.00" arrival="301.90" arrivalLane="-gneE1_1" arrivalPos="300.00" arrivalSpeed="14.97" duration="100.90" routeLength="628.90" waitingTime="41.90" waitingCount="1" stopTime="0.00" timeLoss="58.97" rerouteNo="0" devices="tripinfo_S_N_45" vType="standard_car" speedFactor="1.09" vaporized=""/>
    <tripinfo id="S_W_34" depart="180.00" departLane="gneE3_3" departPos="3.10" departSpeed="10.00" departDelay="0.00" arrival="302.60" arrivalLane="-gneE2_3" arrivalPos="300.00" arrivalSpeed="13.79" duration="122.60" routeLength="625.12" waitingTime="61.80" waitingCount="1" stopTime="0.00" timeLoss="76.80" rerouteNo="0" devices="tripinfo_S_W_34" vType="standard_car" speedFactor="0.99" vaporized=""/>
    <tripinfo id="S_N_47" depart="204.00" departLane="gneE3_0" departPos="3.10" departSpeed="10.00" departDelay="0.00" arrival="304.20" arrivalLane="-gneE1_2" arrivalPos="300.00" arrivalSpeed="12.47" duration="100.20" routeLength="628.90" waitingTime="36.00" waitingCount="1" stopTime="0.00" timeLoss="49.85" rerouteNo="0" devices="tripinfo_S_N_47" vType="standard_car" speedFactor="0.90" vaporized=""/>
    <tripinfo id="W_S_70" depart="258.00" departLane="gneE2_1" departPos="3.10" departSpeed="10.00" departDelay="0.00" arrival="305.60" arrivalLane="-gneE3_0" arrivalPos="300.00" arrivalSpeed="14.20" duration="47.60" routeLength="605.77" waitingTime="0.00" waitingCount="0" stopTime="0.00" timeLoss="4.25" rerouteNo="0" devices="tripinfo_W_S_70" vType="standard_car" speedFactor="1.02" vaporized=""/>
    <tripinfo id="N_S_71" depart="259.00" departLane="gneE1_3" departPos="3.10" departSpeed="10.00" departDelay="0.00" arrival="306.40" arrivalLane="-gneE3_1" arrivalPos="300.00" arrivalSpeed="13.50" duration="47.40" routeLength="628.90" waitingTime="0.00" waitingCount="0" stopTime="0.00" timeLoss="0.78" rerouteNo="0" devices="tripinfo_N_S_71" vType="standard_car" speedFactor="0.97" vaporized=""/>
    <tripinfo id="N_W_72" depart="259.00" departLane="gneE1_0" departPos="3.10" departSpeed="10.00" departDelay="0.00" arrival="309.70" arrivalLane="-gneE2_0" arrivalPos="300.00" arrivalSpeed="13.03" duration="50.70" routeLength="605.77" waitingTime="0.00" waitingCount="0" stopTime="0.00" timeLoss="3.54" rerouteNo="0" devices="tripinfo_N_W_72" vType="standard_car" speedFactor="0.94" vaporized=""/>
    <tripinfo id="S_E_76" depart="267.00" departLane="gneE3_3" departPos="3.10" departSpeed="10.00" departDelay="0.00" arrival="314.20" arrivalLane="-gneE0_0" arrivalPos="300.00" arrivalSpeed="14.32" duration="47.20" routeLength="605.77" waitingTime="0.00" waitingCount="0" stopTime="0.00" timeLoss="4.26" rerouteNo="0" devices="tripinfo_S_E_76" vType="standard_car" speedFactor="1.03" vaporized=""/>
    <tripinfo id="S_N_55" depart="224.00" departLane="gneE3_1" departPos="3.10" departSpeed="10.00" departDelay="0.00" arrival="316.70" arrivalLane="-gneE1_0" arrivalPos="300.00" arrivalSpeed="13.81" duration="92.70" routeLength="628.90" waitingTime="27.40" waitingCount="2" stopTime="0.00" timeLoss="47.20" rerouteNo="0" devices="tripinfo_S_N_55" vType="standard_car" speedFactor="1.00" vaporized=""/>
    <tripinfo id="S_N_59" depart="230.00" departLane="gneE3_1" departPos="3.10" departSpeed="10.00" departDelay="0.00" arrival="317.20" arrivalLane="-gneE1_1" arrivalPos="300.00" arrivalSpeed="13.43" duration="87.20" routeLength="628.90" waitingTime="20.90" waitingCount="2" stopTime="0.00" timeLoss="40.43" rerouteNo="0" devices="tripinfo_S_N_59" vType="standard_car" speedFactor="0.97" vaporized=""/>
    <tripinfo id="S_W_67" depart="251.00" departLane="gneE3_1" departPos="3.10" departSpeed="10.00" departDelay="0.00" arrival="317.70" arrivalLane="-gneE2_1" arrivalPos="300.00" arrivalSpeed="12.69" duration="66.70" routeLength="625.12" waitingTime="6.60" waitingCount="1" stopTime="0.00" timeLoss="16.87" rerouteNo="0" devices="tripinfo_S_W_67" vType="standard_car" speedFactor="0.91" vaporized=""/>
    <tripinfo id="W_N_60" depart="230.00" departLane="gneE2_2" departPos="3.10" departSpeed="10.00" departDelay="0.00" arrival="321.80" arrivalLane="-gneE1_2" arrivalPos="300.00" arrivalSpeed="14.98" duration="91.80" routeLength="625.12" waitingTime="37.00" waitingCount="1" stopTime="0.00" timeLoss="49.59" rerouteNo="0" devices="tripinfo_W_N_60" vType="standard_car" speedFactor="1.08" vaporized=""/>
    <tripinfo id="W_E_43" depart="194.00" departLane="gneE2_3" departPos="3.10" departSpeed="10.00" departDelay="0.00" arrival="322.80" arrivalLane="-gneE0_1" arrivalPos="300.00" arrivalSpeed="14.38" duration="128.80" routeLength="628.90" waitingTime="66.70" waitingCount="1" stopTime="0.00" timeLoss="85.08" rerouteNo="0" devices="tripinfo_W_E_43" vType="standard_car" speedFactor="1.04" vaporized=""/>
    <tripinfo id="W_E_57" depart="227.00" departLane="gneE2_2" departPos="3.10" departSpeed="10.00" departDelay="0.00" arrival="323.10" arrivalLane="-gneE0_3" arrivalPos="300.00" arrivalSpeed="14.99" duration="96.10" routeLength="628.90" waitingTime="37.50" waitingCount="1" stopTime="0.00" timeLoss="54.12" rerouteNo="0" devices="tripinfo_W_E_57" vType="standard_car" speedFactor="1.14" vaporized=""/>
    <tripinfo id="W_E_69" depart="255.00" departLane="gneE2_0" departPos="3.10" departSpeed="10.00" departDelay="0.00" arrival="324.20" arrivalLane="-gneE0_1" arrivalPos="300.00" arrivalSpeed="14.16" duration="69.20" routeLength="628.90" waitingTime="8.80" waitingCount="1" stopTime="0.00" timeLoss="24.88" rerouteNo="0" devices="tripinfo_W_E_69" vType="standard_car" speedFactor="1.02" vaporized=""/>
    <tripinfo id="N_S_81" depart="275.10" departLane="gneE1_3" departPos="3.10" departSpeed="10.00" departDelay="0.10" arrival="324.90" arrivalLane="-gneE3_1" arrivalPos="300.00" arrivalSpeed="13.83" duration="49.80" routeLength="628.90" waitingTime="0.00" waitingCount="0" stopTime="0.00" timeLoss="4.38" rerouteNo="0" devices="tripinfo_N_S_81" vType="standard_car" speedFactor="1.00" vaporized=""/>
    <tripinfo id="W_N_66" depart="241.00" departLane="gneE2_1" departPos="3.10" departSpeed="10.00" departDelay="0.00" arrival="325.60" arrivalLane="-gneE1_3" arrivalPos="300.00" arrivalSpeed="12.58" duration="84.60" routeLength="625.12" waitingTime="20.80" waitingCount="1" stopTime="0.00" timeLoss="34.39" rerouteNo="0" devices="tripinfo_W_N_66" vType="standard_car" speedFactor="0.91" vaporized=""/>