<?xml version="1.0" encoding="UTF-8"?>

<!-- generated on 2021-12-02 18:17:11 by Eclipse SUMO GUI Version 1.10.0
<configuration xmlns:xsi="http://www.w3.org/2001/XMLSchema-instance" xsi:noNamespaceSchemaLocation="http://sumo.dlr.de/xsd/sumoConfiguration.xsd">

    <input>
        <net-file value="../net/netFile/dynamicNet.net.xml"/>
        <route-files value="../net/netFile/dynamic_low_net.rou.xml"/>
    </input>

    <output>
        <tripinfo-output value="tripinfo.xml"/>
    </output>

    <time>
        <begin value="0"/>
        <step-length value="0.1"/>
    </time>

    <processing>
        <time-to-teleport value="-1"/>
        <waiting-time-memory value="15"/>
    </processing>

    <traci_server>
        <remote-port value="63568"/>
    </traci_server>

    <gui_only>
        <quit-on-end value="true"/>
        <start value="true"/>
        <tracker-interval value="0.1"/>
    </gui_only>

</configuration>
-->

<tripinfos xmlns:xsi="http://www.w3.org/2001/XMLSchema-instance" xsi:noNamespaceSchemaLocation="http://sumo.dlr.de/xsd/tripinfo_file.xsd">
    <tripinfo id="E_N_0" depart="28.00" departLane="gneE0_2" departPos="3.10" departSpeed="10.00" departDelay="0.00" arrival="74.20" arrivalLane="-gneE1_0" arrivalPos="300.00" arrivalSpeed="14.70" duration="46.20" routeLength="605.77" waitingTime="0.00" waitingCount="0" stopTime="0.00" timeLoss="4.28" rerouteNo="0" devices="tripinfo_E_N_0" vType="standard_car" speedFactor="1.06" vaporized=""/>
    <tripinfo id="W_E_3" depart="69.00" departLane="gneE2_3" departPos="3.10" departSpeed="10.00" departDelay="0.00" arrival="112.20" arrivalLane="-gneE0_2" arrivalPos="300.00" arrivalSpeed="14.97" duration="43.20" routeLength="628.90" waitingTime="0.00" waitingCount="0" stopTime="0.00" timeLoss="1.20" rerouteNo="0" devices="tripinfo_W_E_3" vType="standard_car" speedFactor="1.08" vaporized=""/>
    <tripinfo id="W_E_2" depart="67.00" departLane="gneE2_3" departPos="3.10" departSpeed="10.00" departDelay="0.00" arrival="112.70" arrivalLane="-gneE0_1" arrivalPos="300.00" arrivalSpeed="14.01" duration="45.70" routeLength="628.90" waitingTime="0.00" waitingCount="0" stopTime="0.00" timeLoss="0.85" rerouteNo="0" devices="tripinfo_W_E_2" vType="standard_car" speedFactor="1.01" vaporized=""/>
    <tripinfo id="S_W_4" depart="76.00" departLane="gneE3_3" departPos="3.10" departSpeed="10.00" departDelay="0.00" arrival="129.30" arrivalLane="-gneE2_2" arrivalPos="300.00" arrivalSpeed="14.26" duration="53.30" routeLength="629.96" waitingTime="0.00" waitingCount="0" stopTime="0.00" timeLoss="8.83" rerouteNo="0" devices="tripinfo_S_W_4" vType="standard_car" speedFactor="1.03" vaporized=""/>
    <tripinfo id="E_N_6" depart="87.00" departLane="gneE0_0" departPos="3.10" departSpeed="10.00" departDelay="0.00" arrival="133.80" arrivalLane="-gneE1_0" arrivalPos="300.00" arrivalSpeed="14.49" duration="46.80" routeLength="605.77" waitingTime="0.00" waitingCount="0" stopTime="0.00" timeLoss="4.36" rerouteNo="0" devices="tripinfo_E_N_6" vType="standard_car" speedFactor="1.05" vaporized=""/>
    <tripinfo id="S_N_7" depart="95.00" departLane="gneE3_2" departPos="3.10" departSpeed="10.00" departDelay="0.00" arrival="146.50" arrivalLane="-gneE1_0" arrivalPos="300.00" arrivalSpeed="12.29" duration="51.50" routeLength="628.90" waitingTime="0.00" waitingCount="0" stopTime="0.00" timeLoss="0.38" rerouteNo="0" devices="tripinfo_S_N_7" vType="standard_car" speedFactor="0.89" vaporized=""/>
    <tripinfo id="S_N_9" depart="105.00" departLane="gneE3_3" departPos="3.10" departSpeed="10.00" departDelay="0.00" arrival="158.20" arrivalLane="-gneE1_0" arrivalPos="300.00" arrivalSpeed="11.86" duration="53.20" routeLength="628.90" waitingTime="0.00" waitingCount="0" stopTime="0.00" timeLoss="0.29" rerouteNo="0" devices="tripinfo_S_N_9" vType="standard_car" speedFactor="0.86" vaporized=""/>
    <tripinfo id="W_S_12" depart="113.00" departLane="gneE2_1" departPos="3.10" departSpeed="10.00" departDelay="0.00" arrival="159.70" arrivalLane="-gneE3_0" arrivalPos="300.00" arrivalSpeed="14.49" duration="46.70" routeLength="605.77" waitingTime="0.00" waitingCount="0" stopTime="0.00" timeLoss="4.34" rerouteNo="0" devices="tripinfo_W_S_12" vType="standard_car" speedFactor="1.05" vaporized=""/>
    <tripinfo id="E_S_10" depart="108.00" departLane="gneE0_3" departPos="3.10" departSpeed="10.00" departDelay="0.00" arrival="163.80" arrivalLane="-gneE3_2" arrivalPos="300.00" arrivalSpeed="14.95" duration="55.80" routeLength="625.12" waitingTime="1.30" waitingCount="1" stopTime="0.00" timeLoss="13.60" rerouteNo="0" devices="tripinfo_E_S_10" vType="standard_car" speedFactor="1.09" vaporized=""/>
    <tripinfo id="E_S_1" depart="67.00" departLane="gneE0_1" departPos="3.10" departSpeed="10.00" departDelay="0.00" arrival="165.90" arrivalLane="-gneE3_1" arrivalPos="300.00" arrivalSpeed="12.99" duration="98.90" routeLength="629.96" waitingTime="40.20" waitingCount="1" stopTime="0.00" timeLoss="50.17" rerouteNo="0" devices="tripinfo_E_S_1" vType="standard_car" speedFactor="0.94" vaporized=""/>
    <tripinfo id="E_S_11" depart="111.00" departLane="gneE0_1" departPos="3.10" departSpeed="10.00" departDelay="0.00" arrival="166.60" arrivalLane="-gneE3_2" arrivalPos="300.00" arrivalSpeed="14.24" duration="55.60" routeLength="629.96" waitingTime="0.00" waitingCount="0" stopTime="0.00" timeLoss="11.04" rerouteNo="0" devices="tripinfo_E_S_11" vType="standard_car" speedFactor="1.03" vaporized=""/>
    <tripinfo id="W_N_5" depart="83.00" departLane="gneE2_2" departPos="3.10" departSpeed="10.00" departDelay="0.00" arrival="168.00" arrivalLane="-gneE1_1" arrivalPos="300.00" arrivalSpeed="11.53" duration="85.00" routeLength="625.12" waitingTime="21.80" waitingCount="1" stopTime="0.00" timeLoss="30.22" rerouteNo="0" devices="tripinfo_W_N_5" vType="standard_car" speedFactor="0.83" vaporized=""/>
    <tripinfo id="N_E_8" depart="103.00" departLane="gneE1_1" departPos="3.10" departSpeed="10.00" departDelay="0.00" arrival="181.20" arrivalLane="-gneE0_1" arrivalPos="300.00" arrivalSpeed="13.00" duration="78.20" routeLength="629.96" waitingTime="19.20" waitingCount="1" stopTime="0.00" timeLoss="29.35" rerouteNo="0" devices="tripinfo_N_E_8" vType="standard_car" speedFactor="0.94" vaporized=""/>
    <tripinfo id="E_W_14" depart="140.00" departLane="gneE0_3" departPos="3.10" departSpeed="10.00" departDelay="0.00" arrival="188.20" arrivalLane="-gneE2_1" arrivalPos="300.00" arrivalSpeed="13.72" duration="48.20" routeLength="628.90" waitingTime="0.00" waitingCount="0" stopTime="0.00" timeLoss="2.46" rerouteNo="0" devices="tripinfo_E_W_14" vType="standard_car" speedFactor="0.99" vaporized=""/>
    <tripinfo id="E_W_16" depart="146.00" departLane="gneE0_1" departPos="3.10" departSpeed="10.00" departDelay="0.00" arrival="197.90" arrivalLane="-gneE2_0" arrivalPos="300.00" arrivalSpeed="12.15" duration="51.90" routeLength="628.90" waitingTime="0.00" waitingCount="0" stopTime="0.00" timeLoss="0.35" rerouteNo="0" devices="tripinfo_E_W_16" vType="standard_car" speedFactor="0.88" vaporized=""/>
    <tripinfo id="E_W_18" depart="170.00" departLane="gneE0_2" departPos="3.10" departSpeed="10.00" departDelay="0.00" arrival="219.00" arrivalLane="-gneE2_0" arrivalPos="300.00" arrivalSpeed="12.98" duration="49.00" routeLength="628.90" waitingTime="0.00" waitingCount="0" stopTime="0.00" timeLoss="0.58" rerouteNo="0" devices="tripinfo_E_W_18" vType="standard_car" speedFactor="0.94" vaporized=""/>
    <tripinfo id="N_S_19" depart="173.00" departLane="gneE1_0" departPos="3.10" departSpeed="10.00" departDelay="0.00" arrival="221.90" arrivalLane="-gneE3_1" arrivalPos="300.00" arrivalSpeed="14.95" duration="48.90" routeLength="628.90" waitingTime="0.00" waitingCount="0" stopTime="0.00" timeLoss="6.92" rerouteNo="0" devices="tripinfo_N_S_19" vType="standard_car" speedFactor="1.16" vaporized=""/>
    <tripinfo id="S_E_20" depart="179.00" departLane="gneE3_3" departPos="3.10" departSpeed="10.00" departDelay="0.00" arrival="226.60" arrivalLane="-gneE0_0" arrivalPos="300.00" arrivalSpeed="14.14" duration="47.60" routeLength="605.77" waitingTime="0.00" waitingCount="0" stopTime="0.00" timeLoss="3.99" rerouteNo="0" devices="tripinfo_S_E_20" vType="standard_car" speedFactor="1.02" vaporized=""/>
    <tripinfo id="N_S_21" depart="180.00" departLane="gneE1_0" departPos="3.10" departSpeed="10.00" departDelay="0.00" arrival="226.90" arrivalLane="-gneE3_2" arrivalPos="300.00" arrivalSpeed="13.98" duration="46.90" routeLength="628.90" waitingTime="0.00" waitingCount="0" stopTime="0.00" timeLoss="2.01" rerouteNo="0" devices="tripinfo_N_S_21" vType="standard_car" speedFactor="1.01" vaporized=""/>
    <tripinfo id="N_S_15" depart="145.00" departLane="gneE1_3" departPos="3.10" departSpeed="10.00" departDelay="0.00" arrival="229.30" arrivalLane="-gneE3_0" arrivalPos="300.00" arrivalSpeed="12.87" duration="84.30" routeLength="628.90" waitingTime="25.00" waitingCount="1" stopTime="0.00" timeLoss="35.38" rerouteNo="0" devices="tripinfo_N_S_15" vType="standard_car" speedFactor="0.93" vaporized=""/>
    <tripinfo id="N_E_23" depart="184.00" departLane="gneE1_2" departPos="3.10" departSpeed="10.00" departDelay="0.00" arrival="238.00" arrivalLane="-gneE0_1" arrivalPos="300.00" arrivalSpeed="12.35" duration="54.00" routeLength="629.96" waitingTime="0.00" waitingCount="0" stopTime="0.00" timeLoss="2.60" rerouteNo="0" devices="tripinfo_N_E_23" vType="standard_car" speedFactor="0.89" vaporized=""/>
    <tripinfo id="W_S_28" depart="204.00" departLane="gneE2_0" departPos="3.10" departSpeed="10.00" departDelay="0.00" arrival="249.50" arrivalLane="-gneE3_0" arrivalPos="300.00" arrivalSpeed="14.97" duration="45.50" routeLength="605.77" waitingTime="0.00" waitingCount="0" stopTime="0.00" timeLoss="4.46" rerouteNo="0" devices="tripinfo_W_S_28" vType="standard_car" speedFactor="1.13" vaporized=""/>
    <tripinfo id="N_E_24" depart="193.00" departLane="gneE1_0" departPos="3.10" departSpeed="10.00" departDelay="0.00" arrival="250.30" arrivalLane="-gneE0_1" arrivalPos="300.00" arrivalSpeed="11.43" duration="57.30" routeLength="629.96" waitingTime="0.00" waitingCount="0" stopTime="0.00" timeLoss="1.89" rerouteNo="0" devices="tripinfo_N_E_24" vType="standard_car" speedFactor="0.83" vaporized=""/>
    <tripinfo id="W_E_13" depart="138.00" departLane="gneE2_1" departPos="3.10" departSpeed="10.00" departDelay="0.00" arrival="259.90" arrivalLane="-gneE0_1" arrivalPos="300.00" arrivalSpeed="14.97" duration="121.90" routeLength="628.90" waitingTime="67.30" waitingCount="1" stopTime="0.00" timeLoss="79.95" rerouteNo="0" devices="tripinfo_W_E_13" vType="standard_car" speedFactor="1.12" vaporized=""/>
    <tripinfo id="S_E_32" depart="212.00" departLane="gneE3_2" departPos="3.10" departSpeed="10.00" departDelay="0.00" arrival="260.10" arrivalLane="-gneE0_0" arrivalPos="300.00" arrivalSpeed="13.94" duration="48.10" routeLength="605.77" waitingTime="0.00" waitingCount="0" stopTime="0.00" timeLoss="4.02" rerouteNo="0" devices="tripinfo_S_E_32" vType="standard_car" speedFactor="1.01" vaporized=""/>
    <tripinfo id="W_E_17" depart="150.00" departLane="gneE2_3" departPos="3.10" departSpeed="10.00" departDelay="0.00" arrival="261.70" arrivalLane="-gneE0_1" arrivalPos="300.00" arrivalSpeed="13.03" duration="111.70" routeLength="628.90" waitingTime="53.30" waitingCount="1" stopTime="0.00" timeLoss="63.55" rerouteNo="0" devices="tripinfo_W_E_17" vType="standard_car" speedFactor="0.94" vaporized=""/>
    <tripinfo id="W_E_26" depart="196.00" departLane="gneE2_1" departPos="3.10" departSpeed="10.00" departDelay="0.00" arrival="263.50" arrivalLane="-gneE0_2" arrivalPos="300.00" arrivalSpeed="12.72" duration="67.50" routeLength="628.90" waitingTime="4.00" waitingCount="1" stopTime="0.00" timeLoss="18.14" rerouteNo="0" devices="tripinfo_W_E_26" vType="standard_car" speedFactor="0.92" vaporized=""/>
    <tripinfo id="W_N_38" depart="219.00" departLane="gneE2_1" departPos="3.10" departSpeed="10.00" departDelay="0.00" arrival="263.50" arrivalLane="-gneE1_3" arrivalPos="300.00" arrivalSpeed="14.97" duration="44.50" routeLength="625.12" waitingTime="0.00" waitingCount="0" stopTime="0.00" timeLoss="2.31" rerouteNo="0" devices="tripinfo_W_N_38" vType="standard_car" speedFactor="1.10" vaporized=""/>
    <tripinfo id="W_N_37" depart="217.00" departLane="gneE2_0" departPos="3.10" departSpeed="10.00" departDelay="0.00" arrival="264.60" arrivalLane="-gneE1_2" arrivalPos="300.00" arrivalSpeed="14.96" duration="47.60" routeLength="629.96" waitingTime="0.00" waitingCount="0" stopTime="0.00" timeLoss="5.46" rerouteNo="0" devices="tripinfo_W_N_37" vType="standard_car" speedFactor="1.18" vaporized=""/>
    <tripinfo id="W_E_40" depart="234.00" departLane="gneE2_3" departPos="3.10" departSpeed="10.00" departDelay="0.00" arrival="278.90" arrivalLane="-gneE0_1" arrivalPos="300.00" arrivalSpeed="14.26" duration="44.90" routeLength="628.90" waitingTime="0.00" waitingCount="0" stopTime="0.00" timeLoss="0.89" rerouteNo="0" devices="tripinfo_W_E_40" vType="standard_car" speedFactor="1.03" vaporized=""/>
    <tripinfo id="S_N_30" depart="208.00" departLane="gneE3_1" departPos="3.10" departSpeed="10.00" departDelay="0.00" arrival="293.10" arrivalLane="-gneE1_1" arrivalPos="300.00" arrivalSpeed="14.98" duration="85.10" routeLength="628.90" waitingTime="30.30" waitingCount="1" stopTime="0.00" timeLoss="43.09" rerouteNo="0" devices="tripinfo_S_N_30" vType="standard_car" speedFactor="1.18" vaporized=""/>
    <tripinfo id="S_W_22" depart="181.00" departLane="gneE3_0" departPos="3.10" departSpeed="10.00" departDelay="0.00" arrival="294.20" arrivalLane="-gneE2_1" arrivalPos="300.00" arrivalSpeed="13.52" duration="113.20" routeLength="629.96" waitingTime="55.80" waitingCount="1" stopTime="0.00" timeLoss="66.24" rerouteNo="0" devices="tripinfo_S_W_22" vType="standard_car" speedFactor="0.98" vaporized=""/>
    <tripinfo id="S_N_33" depart="214.00" departLane="gneE3_0" departPos="3.10" departSpeed="10.00" departDelay="0.00" arrival="294.20" arrivalLane="-gneE1_2" arrivalPos="300.00" arrivalSpeed="14.99" duration="80.20" routeLength="628.90" waitingTime="21.20" waitingCount="1" stopTime="0.00" timeLoss="38.20" rerouteNo="0" devices="tripinfo_S_N_33" vType="standard_car" speedFactor="1.17" vaporized=""/>
    <tripinfo id="S_W_25" depart="195.00" departLane="gneE3_3" departPos="3.10" departSpeed="10.00" departDelay="0.00" arrival="296.30" arrivalLane="-gneE2_2" arrivalPos="300.00" arrivalSpeed="12.10" duration="101.30" routeLength="625.12" waitingTime="39.40" waitingCount="1" stopTime="0.00" timeLoss="49.06" rerouteNo="0" devices="tripinfo_S_W_25" vType="standard_car" speedFactor="0.87" vaporized=""/>
    <tripinfo id="S_N_47" depart="253.00" departLane="gneE3_0" departPos="3.10" departSpeed="10.00" departDelay="0.00" arrival="303.70" arrivalLane="-gneE1_0" arrivalPos="300.00" arrivalSpeed="12.47" duration="50.70" routeLength="628.90" waitingTime="0.00" waitingCount="0" stopTime="0.00" timeLoss="0.41" rerouteNo="0" devices="tripinfo_S_N_47" vType="standard_car" speedFactor="0.90" vaporized=""/>
    <tripinfo id="S_N_51" depart="258.00" departLane="gneE3_1" departPos="3.10" departSpeed="10.00" departDelay="0.00" arrival="304.20" arrivalLane="-gneE1_1" arrivalPos="300.00" arrivalSpeed="14.97" duration="46.20" routeLength="628.90" waitingTime="0.00" waitingCount="0" stopTime="0.00" timeLoss="4.20" rerouteNo="0" devices="tripinfo_S_N_51" vType="standard_car" speedFactor="1.17" vaporized=""/>
    <tripinfo id="S_W_48" depart="253.00" departLane="gneE3_2" departPos="3.10" departSpeed="10.00" departDelay="0.00" arrival="307.80" arrivalLane="-gneE2_1" arrivalPos="300.00" arrivalSpeed="12.17" duration="54.80" routeLength="629.96" waitingTime="0.00" waitingCount="0" stopTime="0.00" timeLoss="2.55" rerouteNo="0" devices="tripinfo_S_W_48" vType="standard_car" speedFactor="0.88" vaporized=""/>
    <tripinfo id="S_W_53" depart="264.00" departLane="gneE3_2" departPos="3.10" departSpeed="10.00" departDelay="0.00" arrival="307.80" arrivalLane="-gneE2_3" arrivalPos="300.00" arrivalSpeed="14.95" duration="43.80" routeLength="625.12" waitingTime="0.00" waitingCount="0" stopTime="0.00" timeLoss="1.64" rerouteNo="0" devices="tripinfo_S_W_53" vType="standard_car" speedFactor="1.10" vaporized=""/>
    <tripinfo id="S_N_50" depart="256.00" departLane="gneE3_3" departPos="3.10" departSpeed="10.00" departDelay="0.00" arrival="309.30" arrivalLane="-gneE1_0" arrivalPos="300.00" arrivalSpeed="11.84" duration="53.30" routeLength="628.90" waitingTime="0.00" waitingCount="0" stopTime="0.00" timeLoss="0.31" rerouteNo="0" devices="tripinfo_S_N_50" vType="standard_car" speedFactor="0.85" vaporized=""/>
    <tripinfo id="E_S_44" depart="250.00" departLane="gneE0_1" departPos="3.10" departSpeed="10.00" departDelay="0.00" arrival="326.20" arrivalLane="-gneE3_2" arrivalPos="300.00" arrivalSpeed="14.45" duration="76.20" routeLength="625.12" waitingTime="19.50" waitingCount="1" stopTime="0.00" timeLoss="32.54" rerouteNo="0" devices="tripinfo_E_S_44" vType="standard_car" speedFactor="1.04" vaporized=""/>
    <tripinfo id="E_S_41" depart="249.00" departLane="gneE0_2" departPos="3.10" departSpeed="10.00" departDelay="0.00" arrival="328.70" arrivalLane="-gneE3_3" arrivalPos="300.00" arrivalSpeed="13.28" duration="79.70" routeLength="625.12" waitingTime="16.30" waitingCount="1" stopTime="0.00" timeLoss="32.08" rerouteNo="0" devices="tripinfo_E_S_41" vType="standard_car" speedFactor="0.96" vaporized=""/>
    <tripinfo id="E_S_54" depart="266.00" departLane="gneE0_1" departPos="3.10" departSpeed="10.00" departDelay="0.00" arrival="329.90" arrivalLane="-gneE3_3" arrivalPos="300.00" arrivalSpeed="13.91" duration="63.90" routeLength="625.12" waitingTime="2.00" waitingCount="1" stopTime="0.00" timeLoss="18.53" rerouteNo="0" devices="tripinfo_E_S_54" vType="standard_car" speedFactor="1.00" vaporized=""/>
    <tripinfo id="N_E_31" depart="212.00" departLane="gneE1_1" departPos="3.10" departSpeed="10.00" departDelay="0.00" arrival="340.70" arrivalLane="-gneE0_3" arrivalPos="300.00" arrivalSpeed="14.95" duration="128.70" routeLength="625.12" waitingTime="74.40" waitingCount="1" stopTime="0.00" timeLoss="86.64" rerouteNo="0" devices="tripinfo_N_E_31" vType="standard_car" speedFactor="1.15" vaporized=""/>
    <tripinfo id="S_W_59" depart="279.00" departLane="gneE3_1" departPos="3.10" departSpeed="10.00" departDelay="0.00" arrival="342.30" arrivalLane="-gneE2_2" arrivalPos="300.00" arrivalSpeed="13.46" duration="63.30" routeLength="625.12" waitingTime="5.80" waitingCount="1" stopTime="0.00" timeLoss="16.27" rerouteNo="0" devices="tripinfo_S_W_59" vType="standard_car" speedFactor="0.97" vaporized=""/>
    <tripinfo id="N_E_35" depart="215.10" departLane="gneE1_2" departPos="3.10" departSpeed="10.00" departDelay="0.10" arrival="342.70" arrivalLane="-gneE0_2" arrivalPos="300.00" arrivalSpeed="14.15" duration="127.60" routeLength="625.12" waitingTime="66.40" waitingCount="1" stopTime="0.00" timeLoss="82.89" rerouteNo="0" devices="tripinfo_N_E_35" vType="standard_car" speedFactor="1.02" vaporized=""/>
    <tripinfo id="N_E_46" depart="250.00" departLane="gneE1_1" departPos="3.10" departSpeed="10.00" departDelay="0.00" arrival="344.20" arrivalLane="-gneE0_2" arrivalPos="300.00" arrivalSpeed="13.85" duration="94.20" routeLength="625.12" waitingTime="32.70" waitingCount="1" stopTime="0.00" timeLoss="48.49" rerouteNo="0" devices="tripinfo_N_E_46" vType="standard_car" speedFactor="1.00" vaporized=""/>
    <tripinfo id="N_E_63" depart="293.00" departLane="gneE1_3" departPos="3.10" departSpeed="10.00" departDelay="0.00" arrival="345.50" arrivalLane="-gneE0_2" arrivalPos="300.00" arrivalSpeed="13.71" duration="52.50" routeLength="625.12" waitingTime="0.00" waitingCount="0" stopTime="0.00" timeLoss="6.39" rerouteNo="0" devices="tripinfo_N_E_63" vType="standard_car" speedFactor="0.99" vaporized=""/>
    <tripinfo id="S_E_70" depart="304.00" departLane="gneE3_0" departPos="3.10" departSpeed="10.00" departDelay="0.00" arrival="351.60" arrivalLane="-gneE0_0" arrivalPos="300.00" arrivalSpeed="14.19" duration="47.60" routeLength="605.77" waitingTime="0.00" waitingCount="0" stopTime="0.00" timeLoss="4.21" rerouteNo="0" devices="tripinfo_S_E_70" vType="standard_car" speedFactor="1.02" vaporized=""/>
    <tripinfo id="N_E_39" depart="227.00" departLane="gneE1_3" departPos="3.10" departSpeed="10.00" departDelay="0.00" arrival="352.40" arrivalLane="-gneE0_2" arrivalPos="300.00" arrivalSpeed="12.48" duration="125.40" routeLength="625.12" waitingTime="61.90" waitingCount="1" stopTime="0.00" timeLoss="74.78" rerouteNo="0" devices="tripinfo_N_E_39" vType="standard_car" speedFactor="0.90" vaporized=""/>
    <tripinfo id="E_S_61" depart="288.00" departLane="gneE0_3" departPos="3.10" departSpeed="10.00" departDelay="0.00" arrival="355.70" arrivalLane="-gneE3_2" arrivalPos="300.00" arrivalSpeed="14.97" duration="67.70" routeLength="625.12" waitingTime="13.20" waitingCount="1" stopTime="0.00" timeLoss="25.64" rerouteNo="0" devices="tripinfo_E_S_61" vType="standard_car" speedFactor="1.12" vaporized=""/>
    <tripinfo id="E_W_43" depart="249.00" departLane="gneE0_3" departPos="3.10" departSpeed="10.00" departDelay="0.00" arrival="357.70" arrivalLane="-gneE2_3" arrivalPos="300.00" arrivalSpeed="14.38" duration="108.70" routeLength="628.90" waitingTime="48.80" waitingCount="1" stopTime="0.00" timeLoss="65.02" rerouteNo="0" devices="tripinfo_E_W_43" vType="standard_car" speedFactor="1.04" vaporized=""/>
    <tripinfo id="E_W_27" depart="199.00" departLane="gneE0_2" departPos="3.10" departSpeed="10.00" departDelay="0.00" arrival="357.90" arrivalLane="-gneE2_0" arrivalPos="300.00" arrivalSpeed="13.13" duration="158.90" routeLength="628.90" waitingTime="100.40" waitingCount="1" stopTime="0.00" timeLoss="111.18" rerouteNo="0" devices="tripinfo_E_W_27" vType="standard_car" speedFactor="0.95" vaporized=""/>
    <tripinfo id="E_W_29" depart="205.00" departLane="gneE0_3" departPos="3.10" departSpeed="10.00" departDelay="0.00" arrival="358.10" arrivalLane="-gneE2_2" arrivalPos="300.00" arrivalSpeed="12.93" duration="153.10" routeLength="628.90" waitingTime="93.70" waitingCount="1" stopTime="0.00" timeLoss="104.45" rerouteNo="0" devices="tripinfo_E_W_29" vType="standard_car" speedFactor="0.93" vaporized=""/>
    <tripinfo id="E_W_45" depart="250.00" departLane="gneE0_0" departPos="3.10" departSpeed="10.00" departDelay="0.00" arrival="358.50" arrivalLane="-gneE2_1" arrivalPos="300.00" arrivalSpeed="15.00" duration="108.50" routeLength="628.90" waitingTime="48.30" waitingCount="1" stopTime="0.00" timeLoss="66.53" rerouteNo="0" devices="tripinfo_E_W_45" vType="standard_car" speedFactor="1.09" vaporized=""/>
    <tripinfo id="E_W_52" depart="259.00" departLane="gneE0_3" departPos="3.10" departSpeed="10.00" departDelay="0.00" arrival="359.40" arrivalLane="-gneE2_2" arrivalPos="300.00" arrivalSpeed="14.10" duration="100.40" routeLength="628.90" waitingTime="39.30" waitingCount="1" stopTime="0.00" timeLoss="55.87" rerouteNo="0" devices="tripinfo_E_W_52" vType="standard_car" speedFactor="1.02" vaporized=""/>
    <tripinfo id="E_S_65" depart="299.00" departLane="gneE0_0" departPos="3.10" departSpeed="10.00" departDelay="0.00" arrival="359.80" arrivalLane="-gneE3_2" arrivalPos="300.00" arrivalSpeed="12.22" duration="60.80" routeLength="625.12" waitingTime="0.00" waitingCount="0" stopTime="0.00" timeLoss="9.19" rerouteNo="0" devices="tripinfo_E_S_65" vType="standard_car" speedFactor="0.88" vaporized=""/>
    <tripinfo id="E_S_74" depart="309.00" departLane="gneE0_3" departPos="3.10" departSpeed="10.00" departDelay="0.00" arrival="360.90" arrivalLane="-gneE3_3" arrivalPos="300.00" arrivalSpeed="13.25" duration="51.90" routeLength="625.12" waitingTime="0.00" waitingCount="0" stopTime="0.00" timeLoss="4.24" rerouteNo="0" devices="tripinfo_E_S_74" vType="standard_car" speedFactor="0.96" vaporized=""/>
    <tripinfo id="E_W_56" depart="269.00" departLane="gneE0_3" departPos="3.10" departSpeed="10.00" departDelay="0.00" arrival="361.30" arrivalLane="-gneE2_0" arrivalPos="300.00" arrivalSpeed="12.46" duration="92.30" routeLength="628.90" waitingTime="22.50" waitingCount="2" stopTime="0.00" timeLoss="41.90" rerouteNo="0" devices="tripinfo_E_W_56" vType="standard_car" speedFactor="0.90" vaporized=""/>
    <tripinfo id="E_S_78" depart="318.00" departLane="gneE0_2" departPos="3.10" departSpeed="10.00" departDelay="0.00" arrival="367.50" arrivalLane="-gneE3_2" arrivalPos="300.00" arrivalSpeed="13.99" duration="49.50" routeLength="629.96" waitingTime="0.00" waitingCount="0" stopTime="0.00" timeLoss="4.07" rerouteNo="0" devices="tripinfo_E_S_78" vType="standard_car" speedFactor="1.01" vaporized=""/>
    <tripinfo id="E_W_82" depart="323.00" departLane="gneE0_2" departPos="3.10" departSpeed="10.00" departDelay="0.00" arrival="368.40" arrivalLane="-gneE2_1" arrivalPos="300.00" arrivalSpeed="14.09" duration="45.40" routeLength="628.90" waitingTime="0.00" waitingCount="0" stopTime="0.00" timeLoss="0.86" rerouteNo="0" devices="tripinfo_E_W_82" vType="standard_car" speedFactor="1.02" vaporized=""/>
    <tripinfo id="E_S_84" depart="323.00" departLane="gneE0_3" departPos="3.10" departSpeed="10.00" departDelay="0.00" arrival="370.50" arrivalLane="-gneE3_2" arrivalPos="300.00" arrivalSpeed="14.97" duration="47.50" routeLength="629.96" waitingTime="0.00" waitingCount="0" stopTime="0.00" timeLoss="5.25" rerouteNo="0" devices="tripinfo_E_S_84" vType="standard_car" speedFactor="1.15" vaporized=""/>
    <tripinfo id="W_S_86" depart="325.00" departLane="gneE2_3" departPos="3.10" departSpeed="10.00" departDelay="0.00" arrival="373.30" arrivalLane="-gneE3_0" arrivalPos="300.00" arrivalSpeed="13.87" duration="48.30" routeLength="605.77" waitingTime="0.00" waitingCount="0" stopTime="0.00" timeLoss="3.98" rerouteNo="0" devices="tripinfo_W_S_86" vType="standard_car" speedFactor="1.00" vaporized=""/>
    <tripinfo id="N_S_34" depart="215.00" departLane="gneE1_3" departPos="3.10" departSpeed="10.00" departDelay="0.00" arrival="389.80" arrivalLane="-gneE3_1" arrivalPos="300.00" arrivalSpeed="13.80" duration="174.80" routeLength="628.90" waitingTime="118.10" waitingCount="1" stopTime="0.00" timeLoss="129.25" rerouteNo="0" devices="tripinfo_N_S_34" vType="standard_car" speedFactor="0.99" vaporized=""/>
    <tripinfo id="N_E_75" depart="309.00" departLane="gneE1_2" departPos="3.10" departSpeed="10.00" departDelay="0.00" arrival="389.90" arrivalLane="-gneE0_2" arrivalPos="300.00" arrivalSpeed="13.65" duration="80.90" routeLength="625.12" waitingTime="23.50" waitingCount="1" stopTime="0.00" timeLoss="34.60" rerouteNo="0" devices="tripinfo_N_E_75" vType="standard_car" speedFactor="0.98" vaporized=""/>
    <tripinfo id="N_S_36" depart="215.00" departLane="gneE1_0" departPos="3.10" departSpeed="10.00" departDelay="0.00" arrival="390.50" arrivalLane="-gneE3_0" arrivalPos="300.00" arrivalSpeed="13.50" duration="175.50" routeLength="628.90" waitingTime="117.80" waitingCount="1" stopTime="0.00" timeLoss="128.94" rerouteNo="0" devices="tripinfo_N_S_36" vType="standard_car" speedFactor="0.97" vaporized=""/>
    <tripinfo id="N_S_58" depart="278.00" departLane="gneE1_1" departPos="3.10" departSpeed="10.00" departDelay="0.00" arrival="390.70" arrivalLane="-gneE3_3" arrivalPos="300.00" arrivalSpeed="14.18" duration="112.70" routeLength="628.90" waitingTime="47.80" waitingCount="2" stopTime="0.00" timeLoss="68.42" rerouteNo="0" devices="tripinfo_N_S_58" vType="standard_car" speedFactor="1.02" vaporized=""/>
    <tripinfo id="N_E_79" depart="321.00" departLane="gneE1_1" departPos="3.10" departSpeed="10.00" departDelay="0.00" arrival="390.80" arrivalLane="-gneE0_3" arrivalPos="300.00" arrivalSpeed="14.98" duration="69.80" routeLength="625.12" waitingTime="10.00" waitingCount="1" stopTime="0.00" timeLoss="27.64" rerouteNo="0" devices="tripinfo_N_E_79" vType="standard_car" speedFactor="1.09" vaporized=""/>
    <tripinfo id="N_S_42" depart="249.00" departLane="gneE1_3" departPos="3.10" departSpeed="10.00" departDelay="0.00" arrival="391.30" arrivalLane="-gneE3_1" arrivalPos="300.00" arrivalSpeed="15.00" duration="142.30" routeLength="628.90" waitingTime="77.40" waitingCount="2" stopTime="0.00" timeLoss="100.37" rerouteNo="0" devices="tripinfo_N_S_42" vType="standard_car" speedFactor="1.09" vaporized=""/>
    <tripinfo id="N_E_88" depart="327.00" departLane="gneE1_3" departPos="3.10" departSpeed="10.00" departDelay="0.00" arrival="392.10" arrivalLane="-gneE0_1" arrivalPos="300.00" arrivalSpeed="13.97" duration="65.10" routeLength="625.12" waitingTime="4.20" waitingCount="1" stopTime="0.00" timeLoss="19.86" rerouteNo="0" devices="tripinfo_N_E_88" vType="standard_car" speedFactor="1.01" vaporized=""/>
    <tripinfo id="N_E_89" depart="328.00" departLane="gneE1_2" departPos="3.10" departSpeed="10.00" departDelay="0.00" arrival="393.10" arrivalLane="-gneE0_3" arrivalPos="300.00" arrivalSpeed="14.16" duration="65.10" routeLength="625.12" waitingTime="2.30" waitingCount="1" stopTime="0.00" timeLoss="20.49" rerouteNo="0" devices="tripinfo_N_E_89" vType="standard_car" speedFactor="1.02" vaporized=""/>
    <tripinfo id="N_S_67" depart="300.20" departLane="gneE1_0" departPos="3.10" departSpeed="10.00" departDelay="0.20" arrival="393.70" arrivalLane="-gneE3_2" arrivalPos="300.00" arrivalSpeed="12.68" duration="93.50" routeLength="628.90" waitingTime="28.60" waitingCount="1" stopTime="0.00" timeLoss="43.94" rerouteNo="0" devices="tripinfo_N_S_67" vType="standard_car" speedFactor="0.91" vaporized=""/>